 Entering Gaussian System, Link 0=g16
 Initial command:
 /opt/gaussian/g16/l1.exe "/opt/gaussian/scratch16/Gau-2712010.inp" -scrdir="/opt/gaussian/scratch16/"
 Entering Link 1 = /opt/gaussian/g16/l1.exe PID=   2712012.
  
 Copyright (c) 1988,1990,1992,1993,1995,1998,2003,2009,2016,
            Gaussian, Inc.  All Rights Reserved.
  
 This is part of the Gaussian(R) 16 program.  It is based on
 the Gaussian(R) 09 system (copyright 2009, Gaussian, Inc.),
 the Gaussian(R) 03 system (copyright 2003, Gaussian, Inc.),
 the Gaussian(R) 98 system (copyright 1998, Gaussian, Inc.),
 the Gaussian(R) 94 system (copyright 1995, Gaussian, Inc.),
 the Gaussian 92(TM) system (copyright 1992, Gaussian, Inc.),
 the Gaussian 90(TM) system (copyright 1990, Gaussian, Inc.),
 the Gaussian 88(TM) system (copyright 1988, Gaussian, Inc.),
 the Gaussian 86(TM) system (copyright 1986, Carnegie Mellon
 University), and the Gaussian 82(TM) system (copyright 1983,
 Carnegie Mellon University). Gaussian is a federally registered
 trademark of Gaussian, Inc.
  
 This software contains proprietary and confidential information,
 including trade secrets, belonging to Gaussian, Inc.
  
 This software is provided under written license and may be
 used, copied, transmitted, or stored only in accord with that
 written license.
  
 The following legend is applicable only to US Government
 contracts under FAR:
  
                    RESTRICTED RIGHTS LEGEND
  
 Use, reproduction and disclosure by the US Government is
 subject to restrictions as set forth in subparagraphs (a)
 and (c) of the Commercial Computer Software - Restricted
 Rights clause in FAR 52.227-19.
  
 Gaussian, Inc.
 340 Quinnipiac St., Bldg. 40, Wallingford CT 06492
  
  
 ---------------------------------------------------------------
 Warning -- This program may not be used in any manner that
 competes with the business of Gaussian, Inc. or will provide
 assistance to any competitor of Gaussian, Inc.  The licensee
 of this program is prohibited from giving any competitor of
 Gaussian, Inc. access to this program.  By using this program,
 the user acknowledges that Gaussian, Inc. is engaged in the
 business of creating and licensing software in the field of
 computational chemistry and represents and warrants to the
 licensee that it is not a competitor of Gaussian, Inc. and that
 it will not use this program in any manner prohibited above.
 ---------------------------------------------------------------
  

 Cite this work as:
 Gaussian 16, Revision A.03,
 M. J. Frisch, G. W. Trucks, H. B. Schlegel, G. E. Scuseria, 
 M. A. Robb, J. R. Cheeseman, G. Scalmani, V. Barone, 
 G. A. Petersson, H. Nakatsuji, X. Li, M. Caricato, A. V. Marenich, 
 J. Bloino, B. G. Janesko, R. Gomperts, B. Mennucci, H. P. Hratchian, 
 J. V. Ortiz, A. F. Izmaylov, J. L. Sonnenberg, D. Williams-Young, 
 F. Ding, F. Lipparini, F. Egidi, J. Goings, B. Peng, A. Petrone, 
 T. Henderson, D. Ranasinghe, V. G. Zakrzewski, J. Gao, N. Rega, 
 G. Zheng, W. Liang, M. Hada, M. Ehara, K. Toyota, R. Fukuda, 
 J. Hasegawa, M. Ishida, T. Nakajima, Y. Honda, O. Kitao, H. Nakai, 
 T. Vreven, K. Throssell, J. A. Montgomery, Jr., J. E. Peralta, 
 F. Ogliaro, M. J. Bearpark, J. J. Heyd, E. N. Brothers, K. N. Kudin, 
 V. N. Staroverov, T. A. Keith, R. Kobayashi, J. Normand, 
 K. Raghavachari, A. P. Rendell, J. C. Burant, S. S. Iyengar, 
 J. Tomasi, M. Cossi, J. M. Millam, M. Klene, C. Adamo, R. Cammi, 
 J. W. Ochterski, R. L. Martin, K. Morokuma, O. Farkas, 
 J. B. Foresman, and D. J. Fox, Gaussian, Inc., Wallingford CT, 2016.
 
 ******************************************
 Gaussian 16:  ES64L-G16RevA.03 25-Dec-2016
                 8-Mar-2023 
 ******************************************
 %chk=31.chk
 %NProcShared=16
 Will use up to   16 processors via shared memory.
 %mem=20GB
 ----------------------------------------------------------------------
 #P M062X/Def2TZVP scf=(direct,conver=8) EmpiricalDispersion=GD3 NoSymm
  Force pop=(NBORead) Charge Prop=(Field,Read)
 ----------------------------------------------------------------------
 1/10=7,18=10,28=-2,30=1,38=1,125=101/1,3;
 2/12=2,15=1,17=6,18=5,29=2,40=1/2;
 3/5=44,7=101,11=2,25=1,30=1,71=1,74=-55,124=31/1,2,3;
 4//1;
 5/5=2,6=8,38=5/2;
 6/7=2,8=2,9=2,10=2,14=2,15=1,28=1,40=2/1,2,7;
 7/7=1,16=-2,29=1,30=1/1,2,3,16;
 1/10=7,18=10,28=-2,30=1/3;
 99/12=1/99;
 Leave Link    1 at Wed Mar  8 15:22:02 2023, MaxMem=  2684354560 cpu:               1.0 elap:               0.1
 (Enter /opt/gaussian/g16/l101.exe)
 ----------------------------------------------------------------------
 Gaussian run using SANDER external interface, route from template gau_
 job.tpl
 ----------------------------------------------------------------------
 Symbolic Z-matrix:
 Charge =  0 Multiplicity = 1
 C                     3.4839   -3.55146  -0.6965 
 H                     3.46372  -3.64315  -1.79105 
 H                     4.44099  -3.91961  -0.29931 
 C                     1.61564  -1.14887   1.08773 
 H                     0.88359  -1.9873    1.12345 
 O                     1.34033  -0.29276   2.13638 
 H                     0.39533   0.16001   2.10492 
 C                     3.09407  -1.66726   1.13928 
 H                     3.25964  -2.484     1.87115 
 O                     3.89796  -0.56276   1.5174 
 H                     4.84615  -0.75821   1.53747 
 C                     1.6672   -0.43202  -0.29314 
 H                     2.27981   0.48845  -0.20227 
 C                     3.42278  -2.04018  -0.35193 
 H                     4.34469  -1.53186  -0.70178 
 O                     2.34269  -1.39293  -1.10625 
 N                     0.42144  -0.12325  -0.98355 
 C                    -0.46256  -1.11992  -1.19824 
 H                    -0.18111  -2.10252  -0.8198 
 C                    -1.62263  -0.87597  -1.87852 
 H                    -2.33602  -1.68957  -2.02289 
 C                    -1.89717   0.41265  -2.36509 
 H                    -2.82223   0.62234  -2.90427 
 H                    -2.85038   1.30068  -0.45341 
 C                    -0.92326   1.41724  -2.16919 
 C                     0.21564   1.12593  -1.44109 
 H                     0.9916    1.87266  -1.25145 
 C                    -1.14372   2.8339   -2.65981 
 O                    -0.74875   3.79179  -2.07189 
 N                    -1.93886   2.9689   -3.76332 
 H                    -1.93775   3.90447  -4.13631 
 H                    -1.96499   2.21435  -4.42769 
 C                     0.91057   2.11893   3.91276 
 C                    -0.89091   2.04353   1.7107 
 C                    -1.76402   2.65261   0.89813 
 C                    -3.93603   3.18919  -0.30675 
 C                    -3.05684   2.07089   0.32298 
 O                    -0.84951   0.75954   2.00323 
 S                     0.34817   3.08482   2.46522 
 H                     0.01333   1.75189   4.42769 
 H                     1.50842   1.27882   3.53792 
 H                    -4.84615   2.74366  -0.73054 
 H                    -3.36848   3.69978  -1.09732 
 H                    -4.20879   3.91961   0.46416 
 H                    -3.61166   1.5612    1.13476 
 H                    -1.58148   3.71163   0.71984 
 H                     2.64334  -4.08139  -0.24846 
 H                     1.51202   2.74093   4.57569 
 
 ITRead=  0  0  0  0  0  0  0  0  0  0  0  0  0  0  0  0  0  0  0  0
 ITRead=  0  0  0  0  0  0  0  0  0  0  0  0  0  0  0  0  0  0  0  0
 ITRead=  0  0  0  0  0  0  0  0
 MicOpt= -1 -1 -1 -1 -1 -1 -1 -1 -1 -1 -1 -1 -1 -1 -1 -1 -1 -1 -1 -1
 MicOpt= -1 -1 -1 -1 -1 -1 -1 -1 -1 -1 -1 -1 -1 -1 -1 -1 -1 -1 -1 -1
 MicOpt= -1 -1 -1 -1 -1 -1 -1 -1
 NAtoms=     48 NQM=       48 NQMF=       0 NMMI=      0 NMMIF=      0
                NMic=       0 NMicF=      0.
                    Isotopes and Nuclear Properties:
 (Nuclear quadrupole moments (NQMom) in fm**2, nuclear magnetic moments (NMagM)
  in nuclear magnetons)

  Atom         1           2           3           4           5           6           7           8           9          10
 IAtWgt=          12           1           1          12           1          16           1          12           1          16
 AtmWgt=  12.0000000   1.0078250   1.0078250  12.0000000   1.0078250  15.9949146   1.0078250  12.0000000   1.0078250  15.9949146
 NucSpn=           0           1           1           0           1           0           1           0           1           0
 AtZEff=  -0.0000000  -0.0000000  -0.0000000  -0.0000000  -0.0000000  -0.0000000  -0.0000000  -0.0000000  -0.0000000  -0.0000000
 NQMom=    0.0000000   0.0000000   0.0000000   0.0000000   0.0000000   0.0000000   0.0000000   0.0000000   0.0000000   0.0000000
 NMagM=    0.0000000   2.7928460   2.7928460   0.0000000   2.7928460   0.0000000   2.7928460   0.0000000   2.7928460   0.0000000
 AtZNuc=   6.0000000   1.0000000   1.0000000   6.0000000   1.0000000   8.0000000   1.0000000   6.0000000   1.0000000   8.0000000

  Atom        11          12          13          14          15          16          17          18          19          20
 IAtWgt=           1          12           1          12           1          16          14          12           1          12
 AtmWgt=   1.0078250  12.0000000   1.0078250  12.0000000   1.0078250  15.9949146  14.0030740  12.0000000   1.0078250  12.0000000
 NucSpn=           1           0           1           0           1           0           2           0           1           0
 AtZEff=  -0.0000000  -0.0000000  -0.0000000  -0.0000000  -0.0000000  -0.0000000  -0.0000000  -0.0000000  -0.0000000  -0.0000000
 NQMom=    0.0000000   0.0000000   0.0000000   0.0000000   0.0000000   0.0000000   2.0440000   0.0000000   0.0000000   0.0000000
 NMagM=    2.7928460   0.0000000   2.7928460   0.0000000   2.7928460   0.0000000   0.4037610   0.0000000   2.7928460   0.0000000
 AtZNuc=   1.0000000   6.0000000   1.0000000   6.0000000   1.0000000   8.0000000   7.0000000   6.0000000   1.0000000   6.0000000

  Atom        21          22          23          24          25          26          27          28          29          30
 IAtWgt=           1          12           1           1          12          12           1          12          16          14
 AtmWgt=   1.0078250  12.0000000   1.0078250   1.0078250  12.0000000  12.0000000   1.0078250  12.0000000  15.9949146  14.0030740
 NucSpn=           1           0           1           1           0           0           1           0           0           2
 AtZEff=  -0.0000000  -0.0000000  -0.0000000  -0.0000000  -0.0000000  -0.0000000  -0.0000000  -0.0000000  -0.0000000  -0.0000000
 NQMom=    0.0000000   0.0000000   0.0000000   0.0000000   0.0000000   0.0000000   0.0000000   0.0000000   0.0000000   2.0440000
 NMagM=    2.7928460   0.0000000   2.7928460   2.7928460   0.0000000   0.0000000   2.7928460   0.0000000   0.0000000   0.4037610
 AtZNuc=   1.0000000   6.0000000   1.0000000   1.0000000   6.0000000   6.0000000   1.0000000   6.0000000   8.0000000   7.0000000

  Atom        31          32          33          34          35          36          37          38          39          40
 IAtWgt=           1           1          12          12          12          12          12          16          32           1
 AtmWgt=   1.0078250   1.0078250  12.0000000  12.0000000  12.0000000  12.0000000  12.0000000  15.9949146  31.9720718   1.0078250
 NucSpn=           1           1           0           0           0           0           0           0           0           1
 AtZEff=  -0.0000000  -0.0000000  -0.0000000  -0.0000000  -0.0000000  -0.0000000  -0.0000000  -0.0000000  -0.0000000  -0.0000000
 NQMom=    0.0000000   0.0000000   0.0000000   0.0000000   0.0000000   0.0000000   0.0000000   0.0000000   0.0000000   0.0000000
 NMagM=    2.7928460   2.7928460   0.0000000   0.0000000   0.0000000   0.0000000   0.0000000   0.0000000   0.0000000   2.7928460
 AtZNuc=   1.0000000   1.0000000   6.0000000   6.0000000   6.0000000   6.0000000   6.0000000   8.0000000  16.0000000   1.0000000

  Atom        41          42          43          44          45          46          47          48
 IAtWgt=           1           1           1           1           1           1           1           1
 AtmWgt=   1.0078250   1.0078250   1.0078250   1.0078250   1.0078250   1.0078250   1.0078250   1.0078250
 NucSpn=           1           1           1           1           1           1           1           1
 AtZEff=  -0.0000000  -0.0000000  -0.0000000  -0.0000000  -0.0000000  -0.0000000  -0.0000000  -0.0000000
 NQMom=    0.0000000   0.0000000   0.0000000   0.0000000   0.0000000   0.0000000   0.0000000   0.0000000
 NMagM=    2.7928460   2.7928460   2.7928460   2.7928460   2.7928460   2.7928460   2.7928460   2.7928460
 AtZNuc=   1.0000000   1.0000000   1.0000000   1.0000000   1.0000000   1.0000000   1.0000000   1.0000000
 Background charge distribution read from input stream:
 Leave Link  101 at Wed Mar  8 15:22:02 2023, MaxMem=  2684354560 cpu:               3.8 elap:               0.2
 (Enter /opt/gaussian/g16/l103.exe)

 GradGradGradGradGradGradGradGradGradGradGradGradGradGradGradGradGradGrad
 Berny optimization.
 Initialization pass.
 Trust Radius=3.00D-01 FncErr=1.00D-07 GrdErr=1.00D-07 EigMax=2.50D+02 EigMin=1.00D-04
 Number of steps in this run=      2 maximum allowed number of steps=      2.
 GradGradGradGradGradGradGradGradGradGradGradGradGradGradGradGradGradGrad

 Leave Link  103 at Wed Mar  8 15:22:02 2023, MaxMem=  2684354560 cpu:               0.8 elap:               0.1
 (Enter /opt/gaussian/g16/l202.exe)
 ---------------------------------------------------------------------------------------------------
                            Z-MATRIX (ANGSTROMS AND DEGREES)
   CD    Cent   Atom    N1       Length/X        N2       Alpha/Y        N3        Beta/Z          J
 ---------------------------------------------------------------------------------------------------
      1      1  C        0   3.483896         -3.551456         -0.696498
      2      2  H        0   3.463719         -3.643145         -1.791052
      3      3  H        0   4.440993         -3.919610         -0.299313
      4      4  C        0   1.615635         -1.148874          1.087727
      5      5  H        0   0.883594         -1.987302          1.123447
      6      6  O        0   1.340331         -0.292760          2.136383
      7      7  H        0   0.395328          0.160007          2.104923
      8      8  C        0   3.094068         -1.667262          1.139280
      9      9  H        0   3.259641         -2.484001          1.871153
     10     10  O        0   3.897964         -0.562756          1.517403
     11     11  H        0   4.846152         -0.758213          1.537474
     12     12  C        0   1.667202         -0.432024         -0.293138
     13     13  H        0   2.279813          0.488449         -0.202271
     14     14  C        0   3.422783         -2.040177         -0.351931
     15     15  H        0   4.344686         -1.531861         -0.701782
     16     16  O        0   2.342694         -1.392930         -1.106254
     17     17  N        0   0.421443         -0.123251         -0.983547
     18     18  C        0  -0.462556         -1.119921         -1.198237
     19     19  H        0  -0.181115         -2.102515         -0.819798
     20     20  C        0  -1.622628         -0.875968         -1.878525
     21     21  H        0  -2.336021         -1.689567         -2.022887
     22     22  C        0  -1.897168          0.412648         -2.365091
     23     23  H        0  -2.822226          0.622340         -2.904274
     24     24  H        0  -2.850380          1.300675         -0.453414
     25     25  C        0  -0.923264          1.417239         -2.169190
     26     26  C        0   0.215636          1.125934         -1.441089
     27     27  H        0   0.991605          1.872663         -1.251454
     28     28  C        0  -1.143725          2.833902         -2.659806
     29     29  O        0  -0.748753          3.791789         -2.071895
     30     30  N        0  -1.938864          2.968904         -3.763325
     31     31  H        0  -1.937749          3.904475         -4.136307
     32     32  H        0  -1.964990          2.214350         -4.427694
     33     33  C        0   0.910566          2.118933          3.912757
     34     34  C        0  -0.890910          2.043528          1.710698
     35     35  C        0  -1.764020          2.652615          0.898125
     36     36  C        0  -3.936028          3.189188         -0.306749
     37     37  C        0  -3.056841          2.070893          0.322980
     38     38  O        0  -0.849509          0.759543          2.003233
     39     39  S        0   0.348166          3.084824          2.465215
     40     40  H        0   0.013328          1.751891          4.427694
     41     41  H        0   1.508420          1.278816          3.537916
     42     42  H        0  -4.846152          2.743663         -0.730542
     43     43  H        0  -3.368480          3.699777         -1.097321
     44     44  H        0  -4.208789          3.919610          0.464156
     45     45  H        0  -3.611656          1.561195          1.134756
     46     46  H        0  -1.581476          3.711635          0.719845
     47     47  H        0   2.643344         -4.081391         -0.248457
     48     48  H        0   1.512018          2.740928          4.575688
 ---------------------------------------------------------------------------------------------------
                         Z-Matrix orientation:                         
 ---------------------------------------------------------------------
 Center     Atomic      Atomic             Coordinates (Angstroms)
 Number     Number       Type             X           Y           Z
 ---------------------------------------------------------------------
      1          6           0        3.483896   -3.551456   -0.696498
      2          1           0        3.463719   -3.643145   -1.791052
      3          1           0        4.440993   -3.919610   -0.299313
      4          6           0        1.615635   -1.148874    1.087727
      5          1           0        0.883594   -1.987302    1.123447
      6          8           0        1.340331   -0.292760    2.136383
      7          1           0        0.395328    0.160007    2.104923
      8          6           0        3.094068   -1.667262    1.139280
      9          1           0        3.259641   -2.484001    1.871153
     10          8           0        3.897964   -0.562756    1.517403
     11          1           0        4.846152   -0.758213    1.537474
     12          6           0        1.667202   -0.432024   -0.293138
     13          1           0        2.279813    0.488449   -0.202271
     14          6           0        3.422783   -2.040177   -0.351931
     15          1           0        4.344686   -1.531861   -0.701782
     16          8           0        2.342694   -1.392930   -1.106254
     17          7           0        0.421443   -0.123251   -0.983547
     18          6           0       -0.462556   -1.119921   -1.198237
     19          1           0       -0.181115   -2.102515   -0.819798
     20          6           0       -1.622628   -0.875968   -1.878525
     21          1           0       -2.336021   -1.689567   -2.022887
     22          6           0       -1.897168    0.412648   -2.365091
     23          1           0       -2.822226    0.622340   -2.904274
     24          1           0       -2.850380    1.300675   -0.453414
     25          6           0       -0.923264    1.417239   -2.169190
     26          6           0        0.215636    1.125934   -1.441089
     27          1           0        0.991605    1.872663   -1.251454
     28          6           0       -1.143725    2.833902   -2.659806
     29          8           0       -0.748753    3.791789   -2.071895
     30          7           0       -1.938864    2.968904   -3.763325
     31          1           0       -1.937749    3.904475   -4.136307
     32          1           0       -1.964990    2.214350   -4.427694
     33          6           0        0.910566    2.118933    3.912757
     34          6           0       -0.890910    2.043528    1.710698
     35          6           0       -1.764020    2.652615    0.898125
     36          6           0       -3.936028    3.189188   -0.306749
     37          6           0       -3.056841    2.070893    0.322980
     38          8           0       -0.849509    0.759543    2.003233
     39         16           0        0.348166    3.084824    2.465215
     40          1           0        0.013328    1.751891    4.427694
     41          1           0        1.508420    1.278816    3.537916
     42          1           0       -4.846152    2.743663   -0.730542
     43          1           0       -3.368480    3.699777   -1.097321
     44          1           0       -4.208789    3.919610    0.464156
     45          1           0       -3.611656    1.561195    1.134756
     46          1           0       -1.581476    3.711635    0.719845
     47          1           0        2.643344   -4.081391   -0.248457
     48          1           0        1.512018    2.740928    4.575688
 ---------------------------------------------------------------------
                    Distance matrix (angstroms):
                    1          2          3          4          5
     1  C    0.000000
     2  H    1.098573   0.000000
     3  H    1.099695   1.804655   0.000000
     4  C    3.527925   4.233695   4.193270   0.000000
     5  H    3.538410   4.230032   4.291054   1.113608   0.000000
     6  O    4.820703   5.581989   5.357309   1.381449   2.026356
     7  H    5.582308   6.249609   6.228245   2.058399   2.410941
     8  C    2.659367   3.553533   2.992796   1.567529   2.233577
     9  H    2.789728   3.846688   2.857882   2.258113   2.539955
    10  O    3.742344   4.541282   3.855361   2.395241   3.357225
    11  H    3.827346   4.616605   3.678638   3.284985   4.169405
    12  C    3.632345   3.972722   4.456143   1.556702   2.244915
    13  H    4.244397   4.582131   4.910305   2.187705   3.136288
    14  C    1.551266   2.154589   2.138175   2.476453   2.937178
    15  H    2.195393   2.533798   2.423345   3.285839   3.939295
    16  O    2.475778   2.605593   3.382030   2.324163   2.730168
    17  N    4.605823   4.721988   5.571113   2.601571   2.850911
    18  C    4.662466   4.704650   5.717615   3.089555   2.820406
    19  H    3.942960   4.074517   4.993658   2.788619   2.218802
    20  C    5.884896   5.791015   6.966001   4.399941   4.065471
    21  H    6.252789   6.124312   7.339736   5.058049   4.511540
    22  C    6.888699   6.746710   7.950358   5.167213   5.065797
    23  H    7.877945   7.677678   8.953742   6.226386   6.063487
    24  H    7.982814   8.130098   8.968793   5.321720   5.219181
    25  C    6.802926   6.707913   7.794463   4.861939   5.069231
    26  C    5.754468   5.780712   6.679431   3.678268   4.088429
    27  H    5.995044   6.068497   6.808471   3.871804   4.533338
    28  C    8.126638   7.995963   9.075843   6.125404   6.455001
    29  O    8.586633   8.549973   9.462621   6.323266   6.802402
    30  N    9.018139   8.763387  10.007676   7.288571   7.510712
    31  H    9.839584   9.573017  10.799407   8.090328   8.386777
    32  H    8.766795   8.410292   9.782925   7.385934   7.522200
    33  C    7.747294   8.500210   8.165137   4.376811   4.964085
    34  C    7.499158   7.972660   8.247931   4.106372   4.443121
    35  C    8.280938   8.613799   9.117576   5.090121   5.346912
    36  C   10.032121  10.180383  10.986790   7.182222   7.215974
    37  C    8.685124   8.923961   9.617219   5.725712   5.712857
    38  O    6.682189   7.237693   7.428702   3.249176   3.364941
    39  S    7.991836   8.549156   8.570645   4.629055   5.273850
    40  H    8.150317   8.926613   8.608992   4.705019   5.065271
    41  H    6.720438   7.513108   7.095629   3.450883   4.109452
    42  H   10.441234  10.534228  11.438366   7.759680   7.658283
    43  H    9.984793  10.053791  10.939824   7.288707   7.440082
    44  H   10.786164  11.006753  11.698504   7.746114   7.826790
    45  H    8.935298   9.257778   9.845859   5.888231   5.727062
    46  H    8.967525   9.265602   9.774698   5.829357   6.222327
    47  H    1.090000   1.801298   1.805631   3.382488   3.060073
    48  H    8.442650   9.225016   8.758271   5.225626   5.888043
                    6          7          8          9         10
     6  O    0.000000
     7  H    1.048340   0.000000
     8  C    2.441119   3.399202   0.000000
     9  H    2.925002   3.905088   1.109106   0.000000
    10  O    2.645283   3.624365   1.417449   2.055183   0.000000
    11  H    3.586937   4.579842   2.013636   2.367848   0.968331
    12  C    2.455363   2.778283   2.369300   3.380921   2.876013
    13  H    2.638601   2.997049   2.666432   3.754279   2.584710
    14  C    3.685346   4.476876   1.571886   2.272817   2.429605
    15  H    4.314707   5.132001   2.229773   2.950235   2.462419
    16  O    3.567884   4.063927   2.383746   3.300937   3.160954
    17  N    3.256846   3.101542   3.746103   4.666671   4.305127
    18  C    3.879985   3.644866   4.291054   5.013644   5.167134
    19  H    3.785368   3.742363   3.841126   4.384695   4.946944
    20  C    5.023817   4.584021   5.655131   6.362579   6.489019
    21  H    5.724173   5.283939   6.283762   6.863389   7.257130
    22  C    5.589478   5.029950   6.443530   7.275234   7.043347
    23  H    6.600948   5.971471   7.522974   8.333257   8.131214
    24  H    5.177658   4.287288   6.832407   7.553790   7.273008
    25  C    5.156153   4.646220   6.049717   7.002910   6.384011
    26  C    4.009481   3.679607   4.769236   5.767889   5.016362
    27  H    4.035853   3.814971   4.760991   5.820240   4.695185
    28  C    6.240992   5.676358   7.256199   8.258288   7.375974
    29  O    6.225545   5.651953   7.408114   8.426173   7.310069
    30  N    7.496540   6.911924   8.417836   9.407761   8.627124
    31  H    8.228561   7.643117   9.175797  10.193874   9.272332
    32  H    7.765169   7.243377   8.464761   9.436459   8.799474
    33  C    3.025965   2.714982   5.176401   5.556375   4.674797
    34  C    3.258510   2.314622   5.475083   6.144212   5.455584
    35  C    4.454830   3.511729   6.505422   7.250433   6.540656
    36  C    6.777376   5.809712   8.665931   9.418386   8.875588
    37  C    5.311348   4.329467   7.243883   7.939890   7.532070
    38  O    2.433202   1.385426   4.710371   5.236711   4.952071
    39  S    3.535619   2.947303   5.646274   6.312006   5.177283
    40  H    3.345391   2.841704   5.656433   5.917536   5.377525
    41  H    2.112440   2.131707   4.116687   4.472546   3.630948
    42  H    7.464026   6.495249   9.273596   9.990053   9.614844
    43  H    6.969225   6.078700   8.693217   9.538498   8.820838
    44  H    7.164715   6.166411   9.219580   9.937974   9.323110
    45  H    5.381689   4.354363   7.442425   8.007535   7.813577
    46  H    5.155455   4.294212   7.139270   7.946561   6.995054
    47  H    4.662513   5.346159   2.820812   2.724743   4.131964
    48  H    3.896531   3.743372   5.808952   6.137474   5.095113
                   11         12         13         14         15
    11  H    0.000000
    12  C    3.682833   0.000000
    13  H    3.341702   1.109423   0.000000
    14  C    2.690587   2.381528   2.778979   0.000000
    15  H    2.421625   2.923278   2.931700   1.109363   0.000000
    16  O    3.695871   1.428561   2.088235   1.467830   2.047162
    17  N    5.131936   1.457368   2.106682   3.616847   4.177967
    18  C    5.983087   2.414182   3.331575   4.081540   4.850334
    19  H    5.712905   2.546407   3.626376   3.634675   4.563162
    20  C    7.316285   3.678793   4.460998   5.398337   6.117496
    21  H    8.070142   4.538638   5.418886   6.006567   6.811904
    22  C    7.878661   4.208467   4.704329   6.194436   6.745996
    23  H    8.968783   5.299498   5.774907   7.252833   7.801038
    24  H    8.212141   4.841124   5.200161   7.108035   7.736532
    25  C    7.194311   3.694572   3.871838   5.843311   6.213033
    26  C    5.819237   2.419105   2.490358   4.636411   4.965833
    27  H    5.436650   2.585804   2.162479   4.693622   4.809998
    28  C    8.148563   4.916167   4.822991   7.066536   7.281236
    29  O    8.064305   5.180870   4.855900   7.373724   7.494103
    30  N    9.382234   6.050803   6.052355   8.091709   8.313419
    31  H    9.997688   6.824283   6.703261   8.854134   8.989922
    32  H    9.529482   6.106609   6.233080   7.983792   8.229735
    33  C    5.422985   4.976890   4.633225   6.465059   6.812888
    34  C    6.386990   4.085053   4.016368   6.288007   6.783431
    35  C    7.465714   4.765227   4.716681   7.105481   7.575344
    36  C    9.803561   6.671548   6.778023   9.027757   9.540156
    37  C    8.481517   5.381522   5.591056   7.703371   8.295335
    38  O    5.912789   3.609291   3.838021   5.624740   6.288665
    39  S    5.988449   4.660106   4.193794   6.607209   6.878650
    40  H    6.165239   5.458116   5.307525   6.989204   7.473635
    41  H    4.392232   4.198709   3.899837   5.459982   5.824032
    42  H   10.552146   7.259482   7.492959   9.560530  10.136687
    43  H    9.710612   6.563275   6.558732   8.923224   9.328420
    44  H   10.248219   7.351019   7.370139   9.717301  10.209794
    45  H    8.779314   5.820494   6.135784   8.041358   8.731738
    46  H    7.871623   5.361898   5.113588   7.699003   8.039569
    47  H    4.368687   3.777926   4.584509   2.187416   3.098414
    48  H    5.708868   5.813534   5.337796   7.126809   7.357474
                   16         17         18         19         20
    16  O    0.000000
    17  N    2.306154   0.000000
    18  C    2.820004   1.349406   0.000000
    19  H    2.637267   2.075422   1.089917   0.000000
    20  C    4.072767   2.354951   1.366774   2.168705   0.000000
    21  H    4.776880   3.337241   2.124715   2.502313   1.091656
    22  C    4.777155   2.751692   2.401755   3.414501   1.404511
    23  H    5.828429   3.842719   3.393240   4.329590   2.176264
    24  H    5.886402   3.607414   3.480768   4.340613   2.876820
    25  C    4.437720   2.363704   2.755391   3.841916   2.415035
    26  C    3.313783   1.346166   2.358556   3.311540   2.752848
    27  H    3.537036   2.092972   3.327608   4.166970   3.844789
    28  C    5.695151   3.742239   4.269999   5.355415   3.821372
    29  O    6.113167   4.228640   4.997007   6.052503   4.752789
    30  N    6.664634   4.781175   5.047539   6.121546   4.293660
    31  H    7.454254   5.632784   6.004415   7.083003   5.296179
    32  H    6.526911   4.798082   4.878941   5.902072   4.020639
    33  C    6.290838   5.407441   6.204667   6.435019   6.994673
    34  C    5.495513   3.698129   4.318888   4.908859   4.684163
    35  C    6.103202   4.002795   4.507834   5.297935   4.492290
    36  C    7.813921   5.515239   5.606084   6.508819   4.934348
    37  C    6.572348   4.315060   4.384713   5.195487   3.948111
    38  O    4.948960   3.363851   3.732496   4.075246   4.282598
    39  S    6.064966   4.710740   5.635426   6.162787   6.199998
    40  H    6.777936   5.741449   6.334419   6.513864   7.024983
    41  H    5.422412   4.857050   5.663023   5.768674   6.616977
    42  H    8.302533   6.002563   5.861904   6.727257   4.981033
    43  H    7.652009   5.384422   5.628860   6.625927   4.959407
    44  H    8.579697   6.315031   6.495743   7.357764   5.930763
    45  H    7.014504   4.857001   4.748481   5.386248   4.356129
    46  H    6.692557   4.649685   5.317419   6.175423   5.272505
    47  H    2.837962   4.598268   4.395339   3.495703   5.579460
    48  H    7.075540   6.348068   7.221032   7.445597   8.035223
                   21         22         23         24         25
    21  H    0.000000
    22  C    2.174627   0.000000
    23  H    2.521537   1.091064   0.000000
    24  H    3.416045   2.313378   2.543157   0.000000
    25  C    3.416069   1.412823   2.185925   2.582877   0.000000
    26  C    3.844019   2.413814   3.409271   3.225910   1.382781
    27  H    4.935350   3.422987   4.340556   3.965462   2.171721
    28  C    4.721123   2.552843   2.787138   3.183021   1.515336
    29  O    5.706757   3.580979   3.877828   3.638951   2.382941
    30  N    4.988808   2.913973   2.650408   3.816983   2.445480
    31  H    5.993201   3.915572   3.615607   4.601779   3.329425
    32  H    4.600144   2.739536   2.364352   4.172963   2.611785
    33  C    7.763818   7.085630   7.914887   5.820456   6.391040
    34  C    5.473938   4.503819   5.200742   3.012430   3.930244
    35  C    5.264412   3.960273   4.438474   2.198767   3.411957
    36  C    5.413631   4.012841   3.817905   2.183259   3.960459
    37  C    4.490405   3.364572   3.545210   1.112946   3.345195
    38  O    4.941406   4.505572   5.290941   3.214253   4.224585
    39  S    7.081153   5.959355   6.704224   4.683191   5.086756
    40  H    7.679392   7.182304   7.941914   5.677115   6.671437
    41  H    7.383330   6.869772   7.790203   5.910189   6.205103
    42  H    5.255895   4.099010   3.649848   2.478329   4.383852
    43  H    5.564860   3.818012   3.610275   2.537466   3.512544
    44  H    6.415256   5.064288   4.913335   3.089665   4.898066
    45  H    4.708016   4.062950   4.221186   1.780364   4.261952
    46  H    6.104498   4.527671   4.921121   2.966374   3.747535
    47  H    5.802025   6.729990   7.684459   7.693481   6.829702
    48  H    8.830509   8.075757   8.900782   6.811513   7.292197
                   26         27         28         29         30
    26  C    0.000000
    27  H    1.093477   0.000000
    28  C    2.500058   2.732593   0.000000
    29  O    2.904264   2.717538   1.191297   0.000000
    30  N    3.664859   4.012341   1.366830   2.225857   0.000000
    31  H    4.429623   4.586038   1.989134   2.384996   1.007179
    32  H    3.854814   4.352781   2.045422   3.085018   1.005694
    33  C    5.489321   5.170715   6.923141   6.431784   8.231885
    34  C    3.464129   3.513887   4.448585   4.169488   5.649730
    35  C    3.423700   3.580850   3.616145   3.339088   4.675439
    36  C    4.772847   5.187222   3.668796   3.692911   3.998138
    37  C    3.835883   4.348339   3.624805   3.744887   4.330610
    38  O    3.623829   3.901503   5.112090   5.080486   6.270659
    39  S    4.371960   3.961942   5.343645   4.721059   6.636162
    40  H    5.905537   5.764056   7.262381   6.854678   8.507935
    41  H    5.146373   4.853640   6.918375   6.548270   8.249138
    42  H    5.361308   5.925318   4.175903   4.436944   4.207235
    43  H    4.425916   4.729951   2.853179   2.796646   3.112162
    44  H    5.568674   5.846144   4.509160   4.291823   4.891626
    45  H    4.633854   5.194326   4.702039   4.842972   5.363868
    46  H    3.819044   3.726739   3.519102   2.914389   4.558309
    47  H    5.867909   6.259792   8.244863   8.764599   9.113593
    48  H    6.363209   5.914415   7.708047   7.099701   9.027718
                   31         32         33         34         35
    31  H    0.000000
    32  H    1.715276   0.000000
    33  C    8.722872   8.822758   0.000000
    34  C    6.224665   6.233994   2.846062   0.000000
    35  C    5.190649   5.347599   4.065247   1.339247   0.000000
    36  C    4.378386   4.670919   6.514534   3.828233   2.541112
    37  C    4.949709   4.876640   5.350620   2.572502   1.529895
    38  O    6.983467   6.687121   2.931227   1.317539   2.375145
    39  S    7.034012   7.322610   1.828830   1.785750   2.665315
    40  H    9.043364   9.085456   1.097687   2.878327   4.053162
    41  H    8.812710   8.740180   1.097147   3.111317   4.423198
    42  H    4.626610   4.717011   7.422285   4.700402   3.487174
    43  H    3.365163   3.907385   6.775706   4.094690   2.766342
    44  H    5.130508   5.645595   6.429859   4.010220   2.787562
    45  H    6.006416   5.837720   5.336558   2.822554   2.158923
    46  H    4.873020   5.374579   4.352202   2.059430   1.089325
    47  H    9.993790   8.850939   7.665653   7.337838   8.129350
    48  H    9.442118   9.665804   1.090000   3.803761   4.925921
                   36         37         38         39         40
    36  C    0.000000
    37  C    1.555670   0.000000
    38  O    4.556950   3.068421   0.000000
    39  S    5.103822   4.148651   2.656085   0.000000
    40  H    6.330734   5.135794   2.758125   2.395861   0.000000
    41  H    6.933468   5.639576   2.860896   2.399696   1.802999
    42  H    1.098371   2.182695   5.232916   6.108207   7.155806
    43  H    1.099007   2.183492   4.960204   5.184909   6.764368
    44  H    1.096454   2.182812   4.862051   5.046478   6.183438
    45  H    2.198526   1.107517   3.004389   4.446544   4.901052
    46  H    2.621213   2.241927   3.301167   2.676327   4.486886
    47  H    9.805756   8.406500   6.380029   7.999156   7.925310
    48  H    7.329416   6.277655   4.015000   2.434525   1.801713
                   41         42         43         44         45
    41  H    0.000000
    42  H    7.793978   0.000000
    43  H    7.150568   1.797831   0.000000
    44  H    7.007729   1.793429   1.786801   0.000000
    45  H    5.663046   2.530128   3.100780   2.523568   0.000000
    46  H    4.838139   3.701175   2.548649   2.647905   2.986331
    47  H    6.660066  10.144274   9.869608  10.558198   8.536807
    48  H    1.792974   8.281450   7.544646   7.142942   6.283615
                   46         47         48
    46  H    0.000000
    47  H    8.917284   0.000000
    48  H    5.037808   8.431863   0.000000
 Symmetry turned off by external request.
 Stoichiometry    C16H24N2O5S
 Framework group  C1[X(C16H24N2O5S)]
 Deg. of freedom   138
 Full point group                 C1      NOp   1
 Rotational constants (GHZ):           0.2875273           0.1714098           0.1270405
 Leave Link  202 at Wed Mar  8 15:22:02 2023, MaxMem=  2684354560 cpu:               0.1 elap:               0.0
 (Enter /opt/gaussian/g16/l301.exe)
 Standard basis: def2TZVP (5D, 7F)
 Ernie: Thresh=  0.10000D-02 Tol=  0.10000D-05 Strict=F.
   894 basis functions,  1434 primitive gaussians,  1014 cartesian basis functions
    95 alpha electrons       95 beta electrons
       nuclear repulsion energy      2437.6635920576 Hartrees.
 IExCor= 4336 DFT=T Ex+Corr=M062X ExCW=0 ScaHFX=  0.540000
 ScaDFX=  1.000000  1.000000  1.000000  1.000000 ScalE2=  1.000000  1.000000
 IRadAn=      5 IRanWt=     -1 IRanGd=            0 ICorTp=0 IEmpDi=131
 NAtoms=   48 NActive=   48 NUniq=   48 SFac= 1.00D+00 NAtFMM=   60 NAOKFM=F Big=F
 Integral buffers will be    131072 words long.
 Raffenetti 2 integral format.
 Two-electron integral symmetry is turned off.
 R6Disp:  Grimme-D3 Dispersion energy=       -0.0042061733 Hartrees.
 Nuclear repulsion after empirical dispersion term =     2437.6593858843 Hartrees.
 Leave Link  301 at Wed Mar  8 15:22:02 2023, MaxMem=  2684354560 cpu:               0.8 elap:               0.1
 (Enter /opt/gaussian/g16/l302.exe)
 NPDir=0 NMtPBC=     1 NCelOv=     1 NCel=       1 NClECP=     1 NCelD=      1
         NCelK=      1 NCelE2=     1 NClLst=     1 CellRange=     0.0.
 One-electron integrals computed using PRISM.
   1 Symmetry operations used in ECPInt.
 ECPInt:  NShTT=   65703 NPrTT=  200010 LenC2=   56119 LenP2D=  118746.
 LDataN:  DoStor=T MaxTD1= 6 Len=  172
 NBasis=   894 RedAO= T EigKep=  2.32D-05  NBF=   894
 NBsUse=   894 1.00D-06 EigRej= -1.00D+00 NBFU=   894
 Precomputing XC quadrature grid using
 IXCGrd= 4 IRadAn=           5 IRanWt=          -1 IRanGd=           0 AccXCQ= 0.00D+00.
 Generated NRdTot=       0 NPtTot=           0 NUsed=           0 NTot=          32
 NSgBfM=   997   997   997   997   997 MxSgAt=    48 MxSgA2=    48.
 Leave Link  302 at Wed Mar  8 15:22:05 2023, MaxMem=  2684354560 cpu:              36.8 elap:               2.3
 (Enter /opt/gaussian/g16/l303.exe)
 DipDrv:  MaxL=1.
 Leave Link  303 at Wed Mar  8 15:22:05 2023, MaxMem=  2684354560 cpu:               4.5 elap:               0.3
 (Enter /opt/gaussian/g16/l401.exe)
 ExpMin= 9.52D-02 ExpMax= 6.07D+04 ExpMxC= 2.07D+03 IAcc=3 IRadAn=         5 AccDes= 0.00D+00
 Harris functional with IExCor= 1009 and IRadAn=       5 diagonalized for initial guess.
 HarFok:  IExCor= 1009 AccDes= 0.00D+00 IRadAn=         5 IDoV= 1 UseB2=F ITyADJ=14
 ICtDFT=  3500011 ScaDFX=  1.000000  1.000000  1.000000  1.000000
 FoFCou: FMM=F IPFlag=           0 FMFlag=      100000 FMFlg1=           0
         NFxFlg=           0 DoJE=T BraDBF=F KetDBF=T FulRan=T
         wScrn=  0.000000 ICntrl=       500 IOpCl=  0 I1Cent=   200000004 NGrid=           0
         NMat0=    1 NMatS0=      1 NMatT0=    0 NMatD0=    1 NMtDS0=    0 NMtDT0=    0
 Symmetry not used in FoFCou.
 Harris En= -1507.21435477638    
 JPrj=0 DoOrth=F DoCkMO=F.
 Leave Link  401 at Wed Mar  8 15:22:14 2023, MaxMem=  2684354560 cpu:             136.7 elap:               8.6
 (Enter /opt/gaussian/g16/l502.exe)
 Two-electron integral symmetry not used.
 Closed shell SCF:
 Using DIIS extrapolation, IDIIS=  1040.
 NGot=  2684354560 LenX=  2682275214 LenY=  2681246004
 Requested convergence on RMS density matrix=1.00D-08 within 128 cycles.
 Requested convergence on MAX density matrix=1.00D-06.
 Requested convergence on             energy=1.00D-06.
 No special actions if energy rises.
 Fock matrices will be formed incrementally for  20 cycles.
 Integral accuracy reduced to 1.0D-05 until final iterations.

 Cycle   1  Pass 0  IDiag  1:
 FoFJK:  IHMeth= 1 ICntrl=       0 DoSepK=F KAlg= 0 I1Cent=           0 FoldK=F
 IRaf= 780000000 NMat=       1 IRICut=       1 DoRegI=T DoRafI=F ISym2E= 0 IDoP0=0 IntGTp=1.
 FoFCou: FMM=F IPFlag=           0 FMFlag=      100000 FMFlg1=           0
         NFxFlg=           0 DoJE=F BraDBF=F KetDBF=F FulRan=T
         wScrn=  0.000000 ICntrl=         0 IOpCl=  0 I1Cent=           0 NGrid=           0
         NMat0=    1 NMatS0=      1 NMatT0=    0 NMatD0=    1 NMtDS0=    0 NMtDT0=    0
 Symmetry not used in FoFCou.
 E= -1507.09945541924    
 DIIS: error= 1.52D-02 at cycle   1 NSaved=   1.
 NSaved= 1 IEnMin= 1 EnMin= -1507.09945541924     IErMin= 1 ErrMin= 1.52D-02
 ErrMax= 1.52D-02  0.00D+00 EMaxC= 1.00D-01 BMatC= 9.97D-01 BMatP= 9.97D-01
 IDIUse=3 WtCom= 8.48D-01 WtEn= 1.52D-01
 Coeff-Com:  0.100D+01
 Coeff-En:   0.100D+01
 Coeff:      0.100D+01
 Gap=     0.097 Goal=   None    Shift=    0.000
 GapD=    0.097 DampG=0.500 DampE=0.500 DampFc=0.2500 IDamp=-1.
 Damping current iteration by 2.50D-01
 RMSDP=4.28D-03 MaxDP=8.94D-01              OVMax= 8.34D-01

 Cycle   2  Pass 0  IDiag  1:
 RMSU=  1.07D-03    CP:  1.01D+00
 E= -1507.33448555616     Delta-E=       -0.235030136918 Rises=F Damp=T
 DIIS: error= 9.31D-03 at cycle   2 NSaved=   2.
 NSaved= 2 IEnMin= 2 EnMin= -1507.33448555616     IErMin= 2 ErrMin= 9.31D-03
 ErrMax= 9.31D-03  0.00D+00 EMaxC= 1.00D-01 BMatC= 3.01D-01 BMatP= 9.97D-01
 IDIUse=3 WtCom= 9.07D-01 WtEn= 9.31D-02
 Coeff-Com: -0.779D+00 0.178D+01
 Coeff-En:   0.000D+00 0.100D+01
 Coeff:     -0.706D+00 0.171D+01
 Gap=     0.133 Goal=   None    Shift=    0.000
 RMSDP=1.22D-03 MaxDP=5.00D-02 DE=-2.35D-01 OVMax= 7.65D-01

 Cycle   3  Pass 0  IDiag  1:
 RMSU=  1.21D-03    CP:  9.96D-01  1.09D+00
 E= -1507.65869064087     Delta-E=       -0.324205084710 Rises=F Damp=F
 DIIS: error= 1.05D-02 at cycle   3 NSaved=   3.
 NSaved= 3 IEnMin= 3 EnMin= -1507.65869064087     IErMin= 2 ErrMin= 9.31D-03
 ErrMax= 1.05D-02  0.00D+00 EMaxC= 1.00D-01 BMatC= 1.76D-01 BMatP= 3.01D-01
 IDIUse=3 WtCom= 8.95D-01 WtEn= 1.05D-01
 Coeff-Com: -0.557D+00 0.107D+01 0.489D+00
 Coeff-En:   0.000D+00 0.000D+00 0.100D+01
 Coeff:     -0.499D+00 0.956D+00 0.542D+00
 Gap=     0.090 Goal=   None    Shift=    0.000
 RMSDP=7.76D-04 MaxDP=4.76D-02 DE=-3.24D-01 OVMax= 2.06D-01

 Cycle   4  Pass 0  IDiag  1:
 RMSU=  6.59D-04    CP:  9.98D-01  1.31D+00  7.27D-01
 E= -1507.84237495969     Delta-E=       -0.183684318824 Rises=F Damp=F
 DIIS: error= 1.67D-03 at cycle   4 NSaved=   4.
 NSaved= 4 IEnMin= 4 EnMin= -1507.84237495969     IErMin= 4 ErrMin= 1.67D-03
 ErrMax= 1.67D-03  0.00D+00 EMaxC= 1.00D-01 BMatC= 7.93D-03 BMatP= 1.76D-01
 IDIUse=3 WtCom= 9.83D-01 WtEn= 1.67D-02
 Coeff-Com: -0.195D+00 0.306D+00 0.175D+00 0.714D+00
 Coeff-En:   0.000D+00 0.000D+00 0.000D+00 0.100D+01
 Coeff:     -0.192D+00 0.301D+00 0.172D+00 0.718D+00
 Gap=     0.103 Goal=   None    Shift=    0.000
 RMSDP=2.22D-04 MaxDP=2.33D-02 DE=-1.84D-01 OVMax= 1.61D-02

 Cycle   5  Pass 0  IDiag  1:
 RMSU=  1.96D-04    CP:  1.00D+00  1.40D+00  7.42D-01  1.03D+00
 E= -1507.84786261181     Delta-E=       -0.005487652121 Rises=F Damp=F
 DIIS: error= 7.82D-04 at cycle   5 NSaved=   5.
 NSaved= 5 IEnMin= 5 EnMin= -1507.84786261181     IErMin= 5 ErrMin= 7.82D-04
 ErrMax= 7.82D-04  0.00D+00 EMaxC= 1.00D-01 BMatC= 1.83D-03 BMatP= 7.93D-03
 IDIUse=3 WtCom= 9.92D-01 WtEn= 7.82D-03
 Coeff-Com: -0.645D-01 0.888D-01 0.169D-01 0.318D+00 0.640D+00
 Coeff-En:   0.000D+00 0.000D+00 0.000D+00 0.398D-01 0.960D+00
 Coeff:     -0.639D-01 0.881D-01 0.167D-01 0.316D+00 0.643D+00
 Gap=     0.108 Goal=   None    Shift=    0.000
 RMSDP=9.20D-05 MaxDP=9.85D-03 DE=-5.49D-03 OVMax= 8.62D-03

 Cycle   6  Pass 0  IDiag  1:
 RMSU=  7.28D-05    CP:  1.00D+00  1.43D+00  7.19D-01  1.10D+00  9.92D-01
 E= -1507.84950763684     Delta-E=       -0.001645025023 Rises=F Damp=F
 DIIS: error= 2.04D-04 at cycle   6 NSaved=   6.
 NSaved= 6 IEnMin= 6 EnMin= -1507.84950763684     IErMin= 6 ErrMin= 2.04D-04
 ErrMax= 2.04D-04  0.00D+00 EMaxC= 1.00D-01 BMatC= 1.42D-04 BMatP= 1.83D-03
 IDIUse=3 WtCom= 9.98D-01 WtEn= 2.04D-03
 Coeff-Com: -0.701D-02 0.769D-02-0.205D-01 0.207D-01 0.239D+00 0.760D+00
 Coeff-En:   0.000D+00 0.000D+00 0.000D+00 0.000D+00 0.000D+00 0.100D+01
 Coeff:     -0.700D-02 0.767D-02-0.205D-01 0.207D-01 0.238D+00 0.761D+00
 Gap=     0.110 Goal=   None    Shift=    0.000
 RMSDP=4.27D-05 MaxDP=3.82D-03 DE=-1.65D-03 OVMax= 4.04D-03

 Cycle   7  Pass 0  IDiag  1:
 RMSU=  2.88D-05    CP:  1.00D+00  1.44D+00  7.18D-01  1.12D+00  1.12D+00
                    CP:  1.04D+00
 E= -1507.84966765530     Delta-E=       -0.000160018467 Rises=F Damp=F
 DIIS: error= 7.13D-05 at cycle   7 NSaved=   7.
 NSaved= 7 IEnMin= 7 EnMin= -1507.84966765530     IErMin= 7 ErrMin= 7.13D-05
 ErrMax= 7.13D-05  0.00D+00 EMaxC= 1.00D-01 BMatC= 1.05D-05 BMatP= 1.42D-04
 IDIUse=1 WtCom= 1.00D+00 WtEn= 0.00D+00
 Coeff-Com:  0.113D-02-0.173D-02-0.840D-02-0.194D-01 0.272D-01 0.261D+00
 Coeff-Com:  0.741D+00
 Coeff:      0.113D-02-0.173D-02-0.840D-02-0.194D-01 0.272D-01 0.261D+00
 Coeff:      0.741D+00
 Gap=     0.111 Goal=   None    Shift=    0.000
 RMSDP=1.78D-05 MaxDP=1.93D-03 DE=-1.60D-04 OVMax= 1.55D-03

 Cycle   8  Pass 0  IDiag  1:
 RMSU=  1.45D-05    CP:  1.00D+00  1.43D+00  7.17D-01  1.13D+00  1.14D+00
                    CP:  1.12D+00  1.22D+00
 E= -1507.84968198201     Delta-E=       -0.000014326702 Rises=F Damp=F
 DIIS: error= 2.37D-05 at cycle   8 NSaved=   8.
 NSaved= 8 IEnMin= 8 EnMin= -1507.84968198201     IErMin= 8 ErrMin= 2.37D-05
 ErrMax= 2.37D-05  0.00D+00 EMaxC= 1.00D-01 BMatC= 2.16D-06 BMatP= 1.05D-05
 IDIUse=1 WtCom= 1.00D+00 WtEn= 0.00D+00
 Coeff-Com:  0.113D-02-0.150D-02-0.227D-02-0.106D-01-0.113D-01 0.299D-01
 Coeff-Com:  0.318D+00 0.676D+00
 Coeff:      0.113D-02-0.150D-02-0.227D-02-0.106D-01-0.113D-01 0.299D-01
 Coeff:      0.318D+00 0.676D+00
 Gap=     0.111 Goal=   None    Shift=    0.000
 RMSDP=1.77D-05 MaxDP=1.68D-03 DE=-1.43D-05 OVMax= 9.77D-04

 Cycle   9  Pass 0  IDiag  1:
 RMSU=  9.88D-06    CP:  1.00D+00  1.43D+00  7.17D-01  1.13D+00  1.16D+00
                    CP:  1.17D+00  1.49D+00  1.74D+00
 E= -1507.84969038115     Delta-E=       -0.000008399145 Rises=F Damp=F
 DIIS: error= 2.23D-05 at cycle   9 NSaved=   9.
 NSaved= 9 IEnMin= 9 EnMin= -1507.84969038115     IErMin= 9 ErrMin= 2.23D-05
 ErrMax= 2.23D-05  0.00D+00 EMaxC= 1.00D-01 BMatC= 5.68D-07 BMatP= 2.16D-06
 IDIUse=1 WtCom= 1.00D+00 WtEn= 0.00D+00
 Coeff-Com:  0.267D-03-0.333D-03-0.596D-03-0.308D-02-0.762D-02-0.138D-01
 Coeff-Com:  0.765D-01 0.310D+00 0.639D+00
 Coeff:      0.267D-03-0.333D-03-0.596D-03-0.308D-02-0.762D-02-0.138D-01
 Coeff:      0.765D-01 0.310D+00 0.639D+00
 Gap=     0.111 Goal=   None    Shift=    0.000
 RMSDP=2.38D-05 MaxDP=2.60D-03 DE=-8.40D-06 OVMax= 5.44D-04

 Cycle  10  Pass 0  IDiag  1:
 RMSU=  6.21D-06    CP:  1.00D+00  1.43D+00  7.18D-01  1.14D+00  1.17D+00
                    CP:  1.23D+00  1.79D+00  2.85D+00  2.30D+00
 E= -1507.84969706344     Delta-E=       -0.000006682290 Rises=F Damp=F
 DIIS: error= 3.78D-05 at cycle  10 NSaved=  10.
 NSaved=10 IEnMin=10 EnMin= -1507.84969706344     IErMin= 9 ErrMin= 2.23D-05
 ErrMax= 3.78D-05  0.00D+00 EMaxC= 1.00D-01 BMatC= 7.86D-07 BMatP= 5.68D-07
 IDIUse=1 WtCom= 1.00D+00 WtEn= 0.00D+00
 Coeff-Com:  0.254D-03-0.284D-03-0.412D-03-0.326D-02-0.105D-01-0.251D-01
 Coeff-Com:  0.821D-01 0.415D+00 0.981D+00-0.439D+00
 Coeff:      0.254D-03-0.284D-03-0.412D-03-0.326D-02-0.105D-01-0.251D-01
 Coeff:      0.821D-01 0.415D+00 0.981D+00-0.439D+00
 Gap=     0.111 Goal=   None    Shift=    0.000
 RMSDP=2.11D-05 MaxDP=2.15D-03 DE=-6.68D-06 OVMax= 1.30D-04

 Cycle  11  Pass 0  IDiag  1:
 RMSU=  3.35D-06    CP:  1.00D+00  1.43D+00  7.17D-01  1.13D+00  1.16D+00
                    CP:  1.18D+00  1.54D+00  1.92D+00  1.12D+00 -5.03D-02
 E= -1507.84968739424     Delta-E=        0.000009669198 Rises=F Damp=F
 DIIS: error= 2.36D-05 at cycle  11 NSaved=  11.
 NSaved=11 IEnMin=10 EnMin= -1507.84969706344     IErMin= 9 ErrMin= 2.23D-05
 ErrMax= 2.36D-05  0.00D+00 EMaxC= 1.00D-01 BMatC= 4.74D-07 BMatP= 5.68D-07
 IDIUse=1 WtCom= 1.00D+00 WtEn= 0.00D+00
 Coeff-Com:  0.340D-04-0.525D-04-0.188D-03-0.433D-03-0.600D-02-0.304D-01
 Coeff-Com: -0.216D-01 0.146D+00 0.888D+00-0.132D+01 0.134D+01
 Coeff:      0.340D-04-0.525D-04-0.188D-03-0.433D-03-0.600D-02-0.304D-01
 Coeff:     -0.216D-01 0.146D+00 0.888D+00-0.132D+01 0.134D+01
 Gap=     0.111 Goal=   None    Shift=    0.000
 RMSDP=2.38D-05 MaxDP=2.09D-03 DE= 9.67D-06 OVMax= 2.59D-04

 Cycle  12  Pass 0  IDiag  1:
 RMSU=  7.96D-06    CP:  1.00D+00  1.43D+00  7.16D-01  1.13D+00  1.16D+00
                    CP:  1.16D+00  1.30D+00  1.06D+00  1.45D-01 -1.86D+00
                    CP:  3.00D+00
 E= -1507.84966654724     Delta-E=        0.000020847007 Rises=F Damp=F
 DIIS: error= 1.78D-05 at cycle  12 NSaved=  12.
 NSaved=12 IEnMin=10 EnMin= -1507.84969706344     IErMin=12 ErrMin= 1.78D-05
 ErrMax= 1.78D-05  0.00D+00 EMaxC= 1.00D-01 BMatC= 2.08D-07 BMatP= 4.74D-07
 IDIUse=1 WtCom= 1.00D+00 WtEn= 0.00D+00
 Coeff-Com:  0.358D-04-0.523D-04-0.230D-03-0.513D-03-0.499D-02-0.244D-01
 Coeff-Com: -0.158D-01 0.118D+00 0.722D+00-0.106D+01 0.105D+01 0.212D+00
 Coeff:      0.358D-04-0.523D-04-0.230D-03-0.513D-03-0.499D-02-0.244D-01
 Coeff:     -0.158D-01 0.118D+00 0.722D+00-0.106D+01 0.105D+01 0.212D+00
 Gap=     0.110 Goal=   None    Shift=    0.000
 RMSDP=5.09D-06 MaxDP=5.36D-04 DE= 2.08D-05 OVMax= 6.87D-05

 Initial convergence to 1.0D-05 achieved.  Increase integral accuracy.
 Cycle  13  Pass 1  IDiag  1:
 E= -1507.84953202126     Delta-E=        0.000134525980 Rises=F Damp=F
 DIIS: error= 2.58D-04 at cycle   1 NSaved=   1.
 NSaved= 1 IEnMin= 1 EnMin= -1507.84953202126     IErMin= 1 ErrMin= 2.58D-04
 ErrMax= 2.58D-04  0.00D+00 EMaxC= 1.00D-01 BMatC= 8.10D-05 BMatP= 8.10D-05
 IDIUse=3 WtCom= 9.97D-01 WtEn= 2.58D-03
 Coeff-Com:  0.100D+01
 Coeff-En:   0.100D+01
 Coeff:      0.100D+01
 Gap=     0.110 Goal=   None    Shift=    0.000
 RMSDP=5.09D-06 MaxDP=5.36D-04 DE= 1.35D-04 OVMax= 9.34D-04

 Cycle  14  Pass 1  IDiag  1:
 RMSU=  4.60D-04    CP:  9.94D-01
 E= -1507.84958440616     Delta-E=       -0.000052384908 Rises=F Damp=F
 DIIS: error= 6.42D-06 at cycle   2 NSaved=   2.
 NSaved= 2 IEnMin= 2 EnMin= -1507.84958440616     IErMin= 2 ErrMin= 6.42D-06
 ErrMax= 6.42D-06  0.00D+00 EMaxC= 1.00D-01 BMatC= 8.71D-08 BMatP= 8.10D-05
 IDIUse=1 WtCom= 1.00D+00 WtEn= 0.00D+00
 Coeff-Com: -0.164D-01 0.102D+01
 Coeff:     -0.164D-01 0.102D+01
 Gap=     0.111 Goal=   None    Shift=    0.000
 RMSDP=1.68D-05 MaxDP=1.09D-03 DE=-5.24D-05 OVMax= 4.87D-04

 Cycle  15  Pass 1  IDiag  1:
 RMSU=  5.66D-06    CP:  9.93D-01  1.03D+00
 E= -1507.84958444714     Delta-E=       -0.000000040980 Rises=F Damp=F
 DIIS: error= 8.12D-06 at cycle   3 NSaved=   3.
 NSaved= 3 IEnMin= 3 EnMin= -1507.84958444714     IErMin= 2 ErrMin= 6.42D-06
 ErrMax= 8.12D-06  0.00D+00 EMaxC= 1.00D-01 BMatC= 1.10D-07 BMatP= 8.71D-08
 IDIUse=1 WtCom= 1.00D+00 WtEn= 0.00D+00
 Coeff-Com: -0.102D-01 0.585D+00 0.426D+00
 Coeff:     -0.102D-01 0.585D+00 0.426D+00
 Gap=     0.110 Goal=   None    Shift=    0.000
 RMSDP=6.60D-07 MaxDP=1.05D-04 DE=-4.10D-08 OVMax= 1.74D-04

 Cycle  16  Pass 1  IDiag  1:
 RMSU=  6.02D-07    CP:  9.93D-01  1.03D+00  1.03D+00
 E= -1507.84958455461     Delta-E=       -0.000000107464 Rises=F Damp=F
 DIIS: error= 1.63D-06 at cycle   4 NSaved=   4.
 NSaved= 4 IEnMin= 4 EnMin= -1507.84958455461     IErMin= 4 ErrMin= 1.63D-06
 ErrMax= 1.63D-06  0.00D+00 EMaxC= 1.00D-01 BMatC= 1.73D-09 BMatP= 8.71D-08
 IDIUse=1 WtCom= 1.00D+00 WtEn= 0.00D+00
 Coeff-Com: -0.134D-03-0.459D-02 0.701D-01 0.935D+00
 Coeff:     -0.134D-03-0.459D-02 0.701D-01 0.935D+00
 Gap=     0.110 Goal=   None    Shift=    0.000
 RMSDP=4.49D-07 MaxDP=2.85D-05 DE=-1.07D-07 OVMax= 1.09D-04

 Cycle  17  Pass 1  IDiag  1:
 RMSU=  2.58D-07    CP:  9.93D-01  1.04D+00  1.07D+00  1.03D+00
 E= -1507.84958456022     Delta-E=       -0.000000005614 Rises=F Damp=F
 DIIS: error= 7.21D-07 at cycle   5 NSaved=   5.
 NSaved= 5 IEnMin= 5 EnMin= -1507.84958456022     IErMin= 5 ErrMin= 7.21D-07
 ErrMax= 7.21D-07  0.00D+00 EMaxC= 1.00D-01 BMatC= 9.95D-10 BMatP= 1.73D-09
 IDIUse=1 WtCom= 1.00D+00 WtEn= 0.00D+00
 Coeff-Com:  0.693D-03-0.454D-01-0.231D-01 0.446D+00 0.622D+00
 Coeff:      0.693D-03-0.454D-01-0.231D-01 0.446D+00 0.622D+00
 Gap=     0.110 Goal=   None    Shift=    0.000
 RMSDP=1.03D-07 MaxDP=5.68D-06 DE=-5.61D-09 OVMax= 3.56D-05

 Cycle  18  Pass 1  IDiag  1:
 RMSU=  6.40D-08    CP:  9.93D-01  1.04D+00  1.08D+00  1.08D+00  1.21D+00
 E= -1507.84958456182     Delta-E=       -0.000000001601 Rises=F Damp=F
 DIIS: error= 3.77D-07 at cycle   6 NSaved=   6.
 NSaved= 6 IEnMin= 6 EnMin= -1507.84958456182     IErMin= 6 ErrMin= 3.77D-07
 ErrMax= 3.77D-07  0.00D+00 EMaxC= 1.00D-01 BMatC= 2.20D-10 BMatP= 9.95D-10
 IDIUse=1 WtCom= 1.00D+00 WtEn= 0.00D+00
 Coeff-Com:  0.304D-03-0.169D-01-0.462D-01-0.162D-01 0.243D+00 0.836D+00
 Coeff:      0.304D-03-0.169D-01-0.462D-01-0.162D-01 0.243D+00 0.836D+00
 Gap=     0.110 Goal=   None    Shift=    0.000
 RMSDP=8.96D-08 MaxDP=7.18D-06 DE=-1.60D-09 OVMax= 3.35D-05

 Cycle  19  Pass 1  IDiag  1:
 RMSU=  4.72D-08    CP:  9.93D-01  1.04D+00  1.08D+00  1.14D+00  1.45D+00
                    CP:  1.29D+00
 E= -1507.84958456245     Delta-E=       -0.000000000632 Rises=F Damp=F
 DIIS: error= 1.55D-07 at cycle   7 NSaved=   7.
 NSaved= 7 IEnMin= 7 EnMin= -1507.84958456245     IErMin= 7 ErrMin= 1.55D-07
 ErrMax= 1.55D-07  0.00D+00 EMaxC= 1.00D-01 BMatC= 4.89D-11 BMatP= 2.20D-10
 IDIUse=1 WtCom= 1.00D+00 WtEn= 0.00D+00
 Coeff-Com: -0.923D-04 0.747D-02-0.235D-01-0.135D+00-0.761D-01 0.399D+00
 Coeff-Com:  0.828D+00
 Coeff:     -0.923D-04 0.747D-02-0.235D-01-0.135D+00-0.761D-01 0.399D+00
 Coeff:      0.828D+00
 Gap=     0.110 Goal=   None    Shift=    0.000
 RMSDP=5.22D-08 MaxDP=3.71D-06 DE=-6.32D-10 OVMax= 2.27D-05

 Cycle  20  Pass 1  IDiag  1:
 RMSU=  1.58D-08    CP:  9.93D-01  1.04D+00  1.09D+00  1.16D+00  1.58D+00
                    CP:  1.66D+00  1.42D+00
 E= -1507.84958456258     Delta-E=       -0.000000000130 Rises=F Damp=F
 DIIS: error= 4.27D-08 at cycle   8 NSaved=   8.
 NSaved= 8 IEnMin= 8 EnMin= -1507.84958456258     IErMin= 8 ErrMin= 4.27D-08
 ErrMax= 4.27D-08  0.00D+00 EMaxC= 1.00D-01 BMatC= 6.21D-12 BMatP= 4.89D-11
 IDIUse=1 WtCom= 1.00D+00 WtEn= 0.00D+00
 Coeff-Com: -0.745D-04 0.522D-02-0.679D-02-0.584D-01-0.664D-01 0.768D-01
 Coeff-Com:  0.377D+00 0.672D+00
 Coeff:     -0.745D-04 0.522D-02-0.679D-02-0.584D-01-0.664D-01 0.768D-01
 Coeff:      0.377D+00 0.672D+00
 Gap=     0.110 Goal=   None    Shift=    0.000
 RMSDP=1.47D-08 MaxDP=1.51D-06 DE=-1.30D-10 OVMax= 5.66D-06

 Cycle  21  Pass 1  IDiag  1:
 RMSU=  4.86D-09    CP:  9.93D-01  1.04D+00  1.09D+00  1.17D+00  1.61D+00
                    CP:  1.75D+00  1.60D+00  1.15D+00
 E= -1507.84958456266     Delta-E=       -0.000000000075 Rises=F Damp=F
 DIIS: error= 2.32D-08 at cycle   9 NSaved=   9.
 NSaved= 9 IEnMin= 9 EnMin= -1507.84958456266     IErMin= 9 ErrMin= 2.32D-08
 ErrMax= 2.32D-08  0.00D+00 EMaxC= 1.00D-01 BMatC= 6.50D-13 BMatP= 6.21D-12
 IDIUse=1 WtCom= 1.00D+00 WtEn= 0.00D+00
 Coeff-Com: -0.116D-04 0.583D-03 0.182D-02 0.531D-02-0.107D-01-0.524D-01
 Coeff-Com: -0.172D-01 0.245D+00 0.827D+00
 Coeff:     -0.116D-04 0.583D-03 0.182D-02 0.531D-02-0.107D-01-0.524D-01
 Coeff:     -0.172D-01 0.245D+00 0.827D+00
 Gap=     0.110 Goal=   None    Shift=    0.000
 RMSDP=6.11D-09 MaxDP=5.48D-07 DE=-7.55D-11 OVMax= 2.42D-06

 SCF Done:  E(RM062X) =  -1507.84958456     A.U. after   21 cycles
            NFock= 21  Conv=0.61D-08     -V/T= 2.0042
 KE= 1.501470881749D+03 PE=-8.413855107233D+03 EE= 2.966875255037D+03
 Leave Link  502 at Wed Mar  8 15:43:38 2023, MaxMem=  2684354560 cpu:           20510.9 elap:            1284.3
 (Enter /opt/gaussian/g16/l601.exe)
 Copying SCF densities to generalized density rwf, IOpCl= 0 IROHF=0.

 **********************************************************************

            Population analysis using the SCF density.

 **********************************************************************

 Alpha  occ. eigenvalues --  -89.84519 -19.65595 -19.62919 -19.62431 -19.56459
 Alpha  occ. eigenvalues --  -19.53930 -14.88617 -14.79382 -10.67839 -10.65677
 Alpha  occ. eigenvalues --  -10.65398 -10.64805 -10.62228 -10.61635 -10.61535
 Alpha  occ. eigenvalues --  -10.60920 -10.60566 -10.60294 -10.56377 -10.55364
 Alpha  occ. eigenvalues --  -10.51440 -10.51069 -10.50669 -10.47419  -8.20406
 Alpha  occ. eigenvalues --   -6.12370  -6.12163  -6.11891  -1.20884  -1.20616
 Alpha  occ. eigenvalues --   -1.16011  -1.14538  -1.10029  -1.05650  -1.04653
 Alpha  occ. eigenvalues --   -0.98191  -0.93959  -0.88771  -0.86133  -0.85063
 Alpha  occ. eigenvalues --   -0.82533  -0.81492  -0.81127  -0.77102  -0.76686
 Alpha  occ. eigenvalues --   -0.72552  -0.69496  -0.69176  -0.68611  -0.66778
 Alpha  occ. eigenvalues --   -0.65037  -0.64136  -0.63140  -0.62179  -0.61075
 Alpha  occ. eigenvalues --   -0.59464  -0.58108  -0.57439  -0.55890  -0.55710
 Alpha  occ. eigenvalues --   -0.54497  -0.54262  -0.52805  -0.51711  -0.51011
 Alpha  occ. eigenvalues --   -0.49963  -0.49500  -0.49300  -0.48712  -0.48378
 Alpha  occ. eigenvalues --   -0.48164  -0.47031  -0.46815  -0.45752  -0.45001
 Alpha  occ. eigenvalues --   -0.44026  -0.43391  -0.42203  -0.41470  -0.41250
 Alpha  occ. eigenvalues --   -0.40158  -0.38798  -0.38231  -0.38086  -0.37500
 Alpha  occ. eigenvalues --   -0.37003  -0.36492  -0.35816  -0.35337  -0.35065
 Alpha  occ. eigenvalues --   -0.32412  -0.31167  -0.27058  -0.25575  -0.19241
 Alpha virt. eigenvalues --   -0.08197  -0.04985   0.03228   0.04021   0.04612
 Alpha virt. eigenvalues --    0.05359   0.06616   0.07010   0.08185   0.08708
 Alpha virt. eigenvalues --    0.09273   0.09699   0.10222   0.10668   0.11143
 Alpha virt. eigenvalues --    0.11344   0.12062   0.12539   0.13000   0.13477
 Alpha virt. eigenvalues --    0.14095   0.14418   0.14905   0.15078   0.15422
 Alpha virt. eigenvalues --    0.15666   0.15909   0.16495   0.16915   0.17872
 Alpha virt. eigenvalues --    0.17937   0.18262   0.18773   0.19066   0.19372
 Alpha virt. eigenvalues --    0.20052   0.20417   0.20656   0.21276   0.21650
 Alpha virt. eigenvalues --    0.22478   0.22674   0.23475   0.23612   0.23888
 Alpha virt. eigenvalues --    0.24280   0.25244   0.25422   0.25538   0.25996
 Alpha virt. eigenvalues --    0.27122   0.27492   0.27816   0.28394   0.28915
 Alpha virt. eigenvalues --    0.29317   0.29477   0.30018   0.30690   0.30742
 Alpha virt. eigenvalues --    0.31196   0.31483   0.31939   0.32721   0.33325
 Alpha virt. eigenvalues --    0.33617   0.34059   0.34369   0.34859   0.35077
 Alpha virt. eigenvalues --    0.35907   0.36588   0.37111   0.37743   0.38012
 Alpha virt. eigenvalues --    0.38503   0.38937   0.39198   0.39586   0.40256
 Alpha virt. eigenvalues --    0.40621   0.40930   0.41113   0.41728   0.41853
 Alpha virt. eigenvalues --    0.42058   0.42468   0.43101   0.43178   0.43482
 Alpha virt. eigenvalues --    0.43794   0.44702   0.45049   0.45160   0.45448
 Alpha virt. eigenvalues --    0.45954   0.46507   0.46760   0.46957   0.47281
 Alpha virt. eigenvalues --    0.47384   0.47905   0.48205   0.48679   0.48975
 Alpha virt. eigenvalues --    0.49338   0.49731   0.49956   0.50555   0.50817
 Alpha virt. eigenvalues --    0.51281   0.51714   0.52224   0.52467   0.52593
 Alpha virt. eigenvalues --    0.52706   0.52784   0.53583   0.54125   0.54722
 Alpha virt. eigenvalues --    0.54838   0.55160   0.55503   0.56252   0.56691
 Alpha virt. eigenvalues --    0.56766   0.57700   0.58060   0.58159   0.58864
 Alpha virt. eigenvalues --    0.59063   0.59726   0.60019   0.60937   0.61532
 Alpha virt. eigenvalues --    0.61863   0.62273   0.63380   0.64353   0.64545
 Alpha virt. eigenvalues --    0.65078   0.65939   0.66561   0.66663   0.67189
 Alpha virt. eigenvalues --    0.67782   0.68394   0.68695   0.69278   0.70288
 Alpha virt. eigenvalues --    0.70736   0.71481   0.72056   0.72482   0.73689
 Alpha virt. eigenvalues --    0.73908   0.74565   0.75332   0.75465   0.76057
 Alpha virt. eigenvalues --    0.77325   0.77696   0.79308   0.80052   0.80604
 Alpha virt. eigenvalues --    0.81281   0.81642   0.82698   0.83372   0.84309
 Alpha virt. eigenvalues --    0.84881   0.85081   0.86159   0.86807   0.87567
 Alpha virt. eigenvalues --    0.88075   0.88545   0.89023   0.89987   0.90678
 Alpha virt. eigenvalues --    0.91276   0.91653   0.92619   0.92829   0.93345
 Alpha virt. eigenvalues --    0.93596   0.93991   0.94846   0.95170   0.95990
 Alpha virt. eigenvalues --    0.96259   0.97369   0.97863   0.98971   0.99618
 Alpha virt. eigenvalues --    1.00278   1.00559   1.01681   1.02400   1.03220
 Alpha virt. eigenvalues --    1.03592   1.04736   1.05084   1.05302   1.06174
 Alpha virt. eigenvalues --    1.06658   1.08346   1.08921   1.09267   1.10016
 Alpha virt. eigenvalues --    1.10424   1.10980   1.11615   1.12442   1.13291
 Alpha virt. eigenvalues --    1.13620   1.13767   1.15201   1.15346   1.15831
 Alpha virt. eigenvalues --    1.16171   1.16738   1.16922   1.18272   1.19314
 Alpha virt. eigenvalues --    1.19909   1.20853   1.21454   1.21768   1.22630
 Alpha virt. eigenvalues --    1.23251   1.23771   1.24307   1.24864   1.25706
 Alpha virt. eigenvalues --    1.27079   1.27475   1.27905   1.28785   1.29618
 Alpha virt. eigenvalues --    1.31102   1.32129   1.32428   1.33317   1.33905
 Alpha virt. eigenvalues --    1.34217   1.35750   1.37216   1.37543   1.38555
 Alpha virt. eigenvalues --    1.39156   1.40320   1.41482   1.42868   1.43316
 Alpha virt. eigenvalues --    1.45291   1.45634   1.46253   1.48102   1.48594
 Alpha virt. eigenvalues --    1.49824   1.50495   1.51082   1.51777   1.52653
 Alpha virt. eigenvalues --    1.53528   1.54125   1.55438   1.55753   1.56212
 Alpha virt. eigenvalues --    1.56342   1.56650   1.57754   1.57979   1.58637
 Alpha virt. eigenvalues --    1.59056   1.59956   1.60465   1.60870   1.61126
 Alpha virt. eigenvalues --    1.61660   1.62022   1.62953   1.63196   1.63383
 Alpha virt. eigenvalues --    1.63779   1.64525   1.64998   1.65996   1.66227
 Alpha virt. eigenvalues --    1.66790   1.66990   1.67666   1.67966   1.68753
 Alpha virt. eigenvalues --    1.69601   1.70016   1.70824   1.71291   1.71761
 Alpha virt. eigenvalues --    1.72502   1.72774   1.73300   1.73776   1.74160
 Alpha virt. eigenvalues --    1.74586   1.74914   1.75916   1.76048   1.76593
 Alpha virt. eigenvalues --    1.77026   1.78473   1.79313   1.79790   1.80772
 Alpha virt. eigenvalues --    1.81201   1.82200   1.82708   1.82807   1.84585
 Alpha virt. eigenvalues --    1.85162   1.85990   1.86303   1.86348   1.87678
 Alpha virt. eigenvalues --    1.88965   1.89541   1.89995   1.90266   1.90901
 Alpha virt. eigenvalues --    1.92028   1.92205   1.92648   1.93451   1.93761
 Alpha virt. eigenvalues --    1.94962   1.95073   1.96267   1.96856   1.97893
 Alpha virt. eigenvalues --    1.98418   1.98732   1.99244   2.00072   2.00368
 Alpha virt. eigenvalues --    2.01032   2.01645   2.02645   2.03275   2.03811
 Alpha virt. eigenvalues --    2.04811   2.06784   2.06947   2.08027   2.08438
 Alpha virt. eigenvalues --    2.09025   2.09668   2.09921   2.10876   2.11136
 Alpha virt. eigenvalues --    2.12382   2.14016   2.14208   2.14747   2.14879
 Alpha virt. eigenvalues --    2.15331   2.15523   2.17686   2.18104   2.18703
 Alpha virt. eigenvalues --    2.19221   2.19530   2.20086   2.20450   2.21457
 Alpha virt. eigenvalues --    2.22177   2.23166   2.24394   2.24856   2.25010
 Alpha virt. eigenvalues --    2.25830   2.26640   2.27579   2.28226   2.28410
 Alpha virt. eigenvalues --    2.29465   2.29762   2.31526   2.32201   2.32675
 Alpha virt. eigenvalues --    2.33222   2.33492   2.33679   2.34731   2.35104
 Alpha virt. eigenvalues --    2.35769   2.37424   2.37965   2.38633   2.38730
 Alpha virt. eigenvalues --    2.39463   2.40364   2.41272   2.41477   2.42890
 Alpha virt. eigenvalues --    2.43820   2.44560   2.45561   2.46061   2.46854
 Alpha virt. eigenvalues --    2.47050   2.47847   2.48623   2.49772   2.50127
 Alpha virt. eigenvalues --    2.50573   2.51649   2.53426   2.54169   2.54788
 Alpha virt. eigenvalues --    2.55090   2.56054   2.56830   2.56912   2.57557
 Alpha virt. eigenvalues --    2.58171   2.58791   2.59390   2.60340   2.60511
 Alpha virt. eigenvalues --    2.61186   2.61440   2.62479   2.63041   2.63436
 Alpha virt. eigenvalues --    2.64008   2.65005   2.65797   2.66189   2.66514
 Alpha virt. eigenvalues --    2.67430   2.67620   2.68556   2.68920   2.69869
 Alpha virt. eigenvalues --    2.70718   2.71114   2.71652   2.71979   2.72944
 Alpha virt. eigenvalues --    2.73467   2.74313   2.74827   2.75840   2.76221
 Alpha virt. eigenvalues --    2.76892   2.77243   2.78738   2.79025   2.79283
 Alpha virt. eigenvalues --    2.80379   2.81282   2.81638   2.82429   2.82655
 Alpha virt. eigenvalues --    2.83639   2.84483   2.84832   2.85893   2.86907
 Alpha virt. eigenvalues --    2.87799   2.88440   2.88984   2.89747   2.91746
 Alpha virt. eigenvalues --    2.92157   2.92467   2.94033   2.94847   2.95160
 Alpha virt. eigenvalues --    2.95819   2.98090   2.98424   2.99192   2.99782
 Alpha virt. eigenvalues --    3.00448   3.00807   3.01780   3.02469   3.02968
 Alpha virt. eigenvalues --    3.03088   3.04304   3.04608   3.05065   3.05440
 Alpha virt. eigenvalues --    3.06518   3.06957   3.08401   3.08525   3.09237
 Alpha virt. eigenvalues --    3.09533   3.09972   3.10531   3.11519   3.12022
 Alpha virt. eigenvalues --    3.12544   3.13691   3.13954   3.14550   3.15632
 Alpha virt. eigenvalues --    3.16405   3.16935   3.17072   3.17306   3.18108
 Alpha virt. eigenvalues --    3.18367   3.18941   3.19062   3.20048   3.20275
 Alpha virt. eigenvalues --    3.20885   3.22398   3.22568   3.23212   3.23972
 Alpha virt. eigenvalues --    3.24174   3.25510   3.26005   3.26594   3.27108
 Alpha virt. eigenvalues --    3.27589   3.27956   3.28724   3.29214   3.29845
 Alpha virt. eigenvalues --    3.30012   3.30625   3.31616   3.32045   3.32400
 Alpha virt. eigenvalues --    3.33453   3.33713   3.34756   3.35732   3.36060
 Alpha virt. eigenvalues --    3.36279   3.36924   3.38013   3.38317   3.39412
 Alpha virt. eigenvalues --    3.39719   3.40145   3.40209   3.41327   3.41962
 Alpha virt. eigenvalues --    3.42284   3.42870   3.43341   3.43621   3.45101
 Alpha virt. eigenvalues --    3.45252   3.45856   3.46023   3.46912   3.47346
 Alpha virt. eigenvalues --    3.48136   3.48535   3.49067   3.50368   3.51005
 Alpha virt. eigenvalues --    3.51400   3.51645   3.52961   3.53308   3.54265
 Alpha virt. eigenvalues --    3.55703   3.56047   3.57060   3.57580   3.58210
 Alpha virt. eigenvalues --    3.58779   3.59752   3.60909   3.62512   3.63417
 Alpha virt. eigenvalues --    3.64104   3.65947   3.66491   3.68041   3.68307
 Alpha virt. eigenvalues --    3.68802   3.70007   3.70347   3.71298   3.71838
 Alpha virt. eigenvalues --    3.72884   3.73548   3.74600   3.75588   3.77124
 Alpha virt. eigenvalues --    3.77685   3.78169   3.79312   3.81517   3.81904
 Alpha virt. eigenvalues --    3.83144   3.83883   3.84597   3.84900   3.86394
 Alpha virt. eigenvalues --    3.88140   3.88876   3.89820   3.91072   3.91650
 Alpha virt. eigenvalues --    3.93105   3.93338   3.93914   3.94608   3.95962
 Alpha virt. eigenvalues --    3.97500   3.99101   4.00451   4.02310   4.03584
 Alpha virt. eigenvalues --    4.05448   4.05646   4.08164   4.08837   4.09244
 Alpha virt. eigenvalues --    4.10632   4.11257   4.13141   4.14098   4.14637
 Alpha virt. eigenvalues --    4.17598   4.18287   4.20054   4.21153   4.22924
 Alpha virt. eigenvalues --    4.23234   4.24468   4.26883   4.27917   4.28428
 Alpha virt. eigenvalues --    4.29433   4.30990   4.32059   4.33707   4.35600
 Alpha virt. eigenvalues --    4.36207   4.36814   4.38552   4.39317   4.41107
 Alpha virt. eigenvalues --    4.43955   4.44299   4.44786   4.45370   4.46853
 Alpha virt. eigenvalues --    4.48271   4.49269   4.50623   4.51784   4.54057
 Alpha virt. eigenvalues --    4.58231   4.59069   4.60572   4.62045   4.65549
 Alpha virt. eigenvalues --    4.69386   4.70638   4.71494   4.71970   4.73990
 Alpha virt. eigenvalues --    4.75484   4.75746   4.77181   4.78787   4.79595
 Alpha virt. eigenvalues --    4.80644   4.86494   4.86968   4.87249   4.88985
 Alpha virt. eigenvalues --    4.91032   4.92626   4.94538   4.95286   4.97012
 Alpha virt. eigenvalues --    4.98310   4.99546   5.02570   5.03554   5.05134
 Alpha virt. eigenvalues --    5.06637   5.09091   5.11988   5.14759   5.17766
 Alpha virt. eigenvalues --    5.19185   5.22151   5.25174   5.27666   5.28100
 Alpha virt. eigenvalues --    5.29199   5.31641   5.32394   5.33955   5.35369
 Alpha virt. eigenvalues --    5.36644   5.38917   5.39619   5.43179   5.43799
 Alpha virt. eigenvalues --    5.44104   5.50762   5.53213   5.55181   5.61151
 Alpha virt. eigenvalues --    5.66408   5.66902   5.70230   5.72363   5.76073
 Alpha virt. eigenvalues --    5.78386   5.80443   5.83042   5.83886   5.85668
 Alpha virt. eigenvalues --    5.86867   5.87909   5.90077   5.94980   5.96729
 Alpha virt. eigenvalues --    5.98295   5.99765   6.02619   6.14998   6.15182
 Alpha virt. eigenvalues --    6.20378   6.20814   6.27855   6.30213   6.40207
 Alpha virt. eigenvalues --    6.44047   6.50902   6.52766   6.56469   6.57181
 Alpha virt. eigenvalues --    6.61593   6.67612   6.72406   6.74390   6.76873
 Alpha virt. eigenvalues --    6.78864   6.82682   6.84419   6.85709   6.89011
 Alpha virt. eigenvalues --    6.92433   6.92941   6.99232   7.07988   7.10193
 Alpha virt. eigenvalues --    7.13737   7.16739   7.18840   7.22173   7.29433
 Alpha virt. eigenvalues --    7.33764   7.48319   9.07544   9.41644   9.58682
 Alpha virt. eigenvalues --   19.81260  22.32566  22.38322  22.43776  22.50263
 Alpha virt. eigenvalues --   22.55395  22.58363  22.62416  22.66715  22.74580
 Alpha virt. eigenvalues --   22.80042  22.85768  22.90151  22.99427  23.15098
 Alpha virt. eigenvalues --   23.18873  23.47722  32.11728  33.12478  44.13711
 Alpha virt. eigenvalues --   44.24507  44.28605  44.40672  44.50303
          Condensed to atoms (all electrons):
               1          2          3          4          5          6
     1  C    5.106082   0.416895   0.410010  -0.009515   0.001499  -0.000225
     2  H    0.416895   0.516384  -0.020580  -0.001180   0.000213  -0.000004
     3  H    0.410010  -0.020580   0.531238   0.001498  -0.000084   0.000000
     4  C   -0.009515  -0.001180   0.001498   5.396059   0.486551   0.314643
     5  H    0.001499   0.000213  -0.000084   0.486551   0.576463  -0.043209
     6  O   -0.000225  -0.000004   0.000000   0.314643  -0.043209   8.229031
     7  H   -0.000045  -0.000001   0.000002  -0.030456  -0.010140   0.243210
     8  C    0.000302   0.011896  -0.007754  -0.055416  -0.073005  -0.051516
     9  H    0.013797  -0.000007  -0.001395  -0.095638   0.002299   0.004236
    10  O    0.009204  -0.000426   0.000162  -0.048975   0.001302  -0.007534
    11  H   -0.000928  -0.000095   0.000334   0.015025  -0.000609  -0.000397
    12  C   -0.004387   0.000586   0.000065  -0.058202  -0.093939  -0.058151
    13  H    0.000671   0.000018   0.000067  -0.081928   0.005698   0.008911
    14  C    0.168564  -0.048377  -0.037637   0.109511   0.010271   0.006292
    15  H   -0.058091  -0.005865  -0.003240  -0.007664  -0.000142   0.000047
    16  O   -0.027629   0.001237   0.004788  -0.053149   0.000424   0.007074
    17  N   -0.000315  -0.000083  -0.000031   0.018775  -0.008958  -0.001512
    18  C   -0.001644   0.000092   0.000031  -0.004918  -0.001600   0.003295
    19  H   -0.000222  -0.000053   0.000046  -0.008762   0.000841   0.000519
    20  C    0.000112  -0.000023  -0.000000   0.003923   0.007455  -0.000938
    21  H    0.000005  -0.000000  -0.000000  -0.000029   0.000136  -0.000009
    22  C   -0.000016   0.000003  -0.000000   0.001660  -0.000801   0.000118
    23  H   -0.000000   0.000000  -0.000000   0.000019  -0.000004   0.000000
    24  H    0.000000  -0.000000   0.000000   0.000041  -0.000065  -0.000024
    25  C   -0.000070  -0.000008   0.000001  -0.010054  -0.000005  -0.000610
    26  C   -0.000479   0.000072  -0.000005   0.008972  -0.001553  -0.005505
    27  H   -0.000018   0.000001  -0.000000   0.000341  -0.000159   0.000017
    28  C   -0.000000   0.000000  -0.000000  -0.000001   0.000012  -0.000029
    29  O   -0.000000  -0.000000  -0.000000   0.000013   0.000000  -0.000000
    30  N   -0.000000  -0.000000   0.000000   0.000001  -0.000000   0.000000
    31  H   -0.000000   0.000000  -0.000000  -0.000000   0.000000  -0.000000
    32  H    0.000000  -0.000000  -0.000000   0.000000   0.000000   0.000000
    33  C    0.000002  -0.000000  -0.000000   0.000982  -0.000577  -0.022516
    34  C    0.000001  -0.000000   0.000000  -0.000660   0.000208   0.017495
    35  C   -0.000000   0.000000  -0.000000  -0.000880   0.000557   0.002686
    36  C   -0.000000   0.000000   0.000000   0.000003   0.000001   0.000003
    37  C   -0.000000  -0.000000   0.000000   0.000300   0.000014   0.000098
    38  O   -0.000000   0.000000   0.000000   0.018673   0.000256  -0.116785
    39  S   -0.000000  -0.000000  -0.000000  -0.001505   0.000006   0.001383
    40  H   -0.000000   0.000000  -0.000000   0.000108   0.000052   0.000135
    41  H   -0.000006   0.000000  -0.000000   0.000626   0.000574   0.010185
    42  H   -0.000000   0.000000   0.000000   0.000000  -0.000000  -0.000000
    43  H    0.000000   0.000000  -0.000000   0.000000   0.000000  -0.000000
    44  H    0.000000  -0.000000  -0.000000   0.000000  -0.000000  -0.000000
    45  H    0.000000  -0.000000  -0.000000  -0.000038   0.000010   0.000039
    46  H    0.000000  -0.000000  -0.000000  -0.000027  -0.000001   0.000038
    47  H    0.383800  -0.024967  -0.022785   0.001655  -0.000117   0.000004
    48  H    0.000000   0.000000  -0.000000  -0.000076   0.000005   0.000366
               7          8          9         10         11         12
     1  C   -0.000045   0.000302   0.013797   0.009204  -0.000928  -0.004387
     2  H   -0.000001   0.011896  -0.000007  -0.000426  -0.000095   0.000586
     3  H    0.000002  -0.007754  -0.001395   0.000162   0.000334   0.000065
     4  C   -0.030456  -0.055416  -0.095638  -0.048975   0.015025  -0.058202
     5  H   -0.010140  -0.073005   0.002299   0.001302  -0.000609  -0.093939
     6  O    0.243210  -0.051516   0.004236  -0.007534  -0.000397  -0.058151
     7  H    0.296402   0.006128  -0.000082  -0.000546   0.000105   0.014088
     8  C    0.006128   5.397704   0.497277   0.297727  -0.039082   0.015755
     9  H   -0.000082   0.497277   0.572069  -0.057800  -0.006518   0.012491
    10  O   -0.000546   0.297727  -0.057800   8.015527   0.291499  -0.015447
    11  H    0.000105  -0.039082  -0.006518   0.291499   0.427868  -0.004347
    12  C    0.014088   0.015755   0.012491  -0.015447  -0.004347   5.676948
    13  H   -0.000350   0.017945   0.002621   0.016890  -0.001036   0.428872
    14  C   -0.000578   0.094923  -0.108833  -0.063732   0.001714  -0.076089
    15  H    0.000053  -0.025307   0.007969  -0.003050   0.002429  -0.001607
    16  O   -0.000247  -0.046009   0.004358   0.008967   0.000106   0.209208
    17  N    0.000756  -0.002010  -0.000549  -0.000195  -0.000015   0.184657
    18  C   -0.001813  -0.002795  -0.000193  -0.000261   0.000010  -0.089964
    19  H   -0.000101   0.000473   0.000055   0.000002   0.000000   0.009712
    20  C   -0.000171  -0.001428   0.000045   0.000016  -0.000001   0.013406
    21  H    0.000003  -0.000010   0.000000   0.000000  -0.000000   0.000340
    22  C   -0.000145   0.000035  -0.000006  -0.000005   0.000000  -0.010096
    23  H   -0.000003   0.000000  -0.000000  -0.000000   0.000000   0.000043
    24  H   -0.000065   0.000011  -0.000000   0.000000   0.000000   0.000736
    25  C    0.001063  -0.000046   0.000007  -0.000033  -0.000001  -0.007227
    26  C   -0.000177  -0.003408  -0.000110  -0.000586  -0.000058  -0.065534
    27  H    0.000132  -0.000077  -0.000014  -0.000181   0.000007  -0.002918
    28  C    0.000062  -0.000002   0.000000   0.000000  -0.000000  -0.000323
    29  O    0.000006   0.000000   0.000000  -0.000000   0.000000   0.000392
    30  N    0.000000   0.000000  -0.000000  -0.000000  -0.000000   0.000007
    31  H   -0.000000  -0.000000   0.000000  -0.000000  -0.000000  -0.000003
    32  H   -0.000000  -0.000000  -0.000000   0.000000  -0.000000  -0.000010
    33  C   -0.000135   0.001012   0.000032  -0.000850   0.000064  -0.000394
    34  C   -0.015631   0.000048  -0.000024   0.000052  -0.000000  -0.002882
    35  C    0.002180  -0.000321  -0.000002   0.000005  -0.000001  -0.000534
    36  C   -0.000018   0.000000  -0.000000   0.000000  -0.000000  -0.000001
    37  C   -0.000423   0.000013  -0.000000  -0.000000   0.000000  -0.000855
    38  O    0.112806  -0.000650   0.000001  -0.000004  -0.000001   0.005537
    39  S    0.001009   0.000229  -0.000000   0.000002  -0.000003   0.000389
    40  H   -0.000249  -0.000062   0.000000   0.000017  -0.000001   0.000043
    41  H   -0.011892  -0.001358  -0.000017   0.002619  -0.000187  -0.000151
    42  H   -0.000001   0.000000  -0.000000  -0.000000   0.000000  -0.000000
    43  H    0.000001   0.000000   0.000000   0.000000   0.000000   0.000001
    44  H    0.000000   0.000000  -0.000000  -0.000000   0.000000   0.000001
    45  H    0.000017  -0.000000   0.000000  -0.000000  -0.000000  -0.000060
    46  H   -0.000182  -0.000001  -0.000000   0.000000   0.000000   0.000185
    47  H    0.000009  -0.011009   0.000314   0.000193   0.000099  -0.001326
    48  H    0.000941  -0.000034   0.000003   0.000001  -0.000003   0.000015
              13         14         15         16         17         18
     1  C    0.000671   0.168564  -0.058091  -0.027629  -0.000315  -0.001644
     2  H    0.000018  -0.048377  -0.005865   0.001237  -0.000083   0.000092
     3  H    0.000067  -0.037637  -0.003240   0.004788  -0.000031   0.000031
     4  C   -0.081928   0.109511  -0.007664  -0.053149   0.018775  -0.004918
     5  H    0.005698   0.010271  -0.000142   0.000424  -0.008958  -0.001600
[...]
      7        1          -0.004220012   -0.001856418   -0.004156037
      8        6           0.014917494    0.000712605   -0.005682343
      9        1          -0.007643194    0.003065632   -0.010975988
     10        8          -0.001844772    0.007766981    0.002109035
     11        1          -0.010203543   -0.006429576   -0.001864488
     12        6           0.031089412   -0.023164152    0.002529017
     13        1          -0.012019936   -0.005966282    0.001952602
     14        6          -0.018628098    0.001956760   -0.000905377
     15        1          -0.005819361   -0.006569180    0.009732739
     16        8           0.000347317   -0.003335602   -0.002475280
     17        7           0.004666227    0.005007210    0.006410721
     18        6          -0.003046411   -0.004944490   -0.000826413
     19        1          -0.001572436    0.007606791   -0.002133666
     20        6          -0.009152285   -0.002563668   -0.003304720
     21        1           0.005408861    0.005720345    0.001311647
     22        6           0.016919904    0.005315547    0.002137545
     23        1           0.005517477   -0.000211449    0.004220873
     24        1          -0.003630523    0.004398438    0.007608453
     25        6          -0.015175444   -0.006246619   -0.004297435
     26        6          -0.003467924    0.005437390    0.001193438
     27        1          -0.007335618   -0.005158821    0.000961569
     28        6          -0.013086413   -0.011202475   -0.002240395
     29        8           0.017537562    0.014124261    0.014129069
     30        7           0.002981999   -0.009324931   -0.003857767
     31        1          -0.002563451    0.001051639   -0.001748097
     32        1          -0.002020885    0.000212051   -0.002478976
     33        6          -0.008528830   -0.012347958   -0.011924399
     34        6           0.014776888   -0.053480995    0.021042918
     35        6          -0.025026609    0.014426116   -0.023929534
     36        6           0.007992335   -0.013453100    0.005059952
     37        6           0.010499248    0.007407414    0.005177803
     38        8          -0.010388455    0.027956028   -0.009882871
     39       16           0.012639860    0.012314027    0.005013698
     40        1           0.007334790    0.001075948   -0.000502960
     41        1          -0.003169882    0.005009744    0.007687182
     42        1           0.003070160    0.005155397    0.000942678
     43        1          -0.004447810   -0.000839049    0.003296535
     44        1           0.000382128   -0.001980357   -0.004555702
     45        1           0.004445596    0.001855723   -0.008365677
     46        1          -0.004439322   -0.002106348    0.000803518
     47        1           0.001254480   -0.001213067   -0.000982027
     48        1          -0.003360985    0.003898276   -0.004661951
 -------------------------------------------------------------------
 Cartesian Forces:  Max     0.053480995 RMS     0.010315139
 Leave Link  716 at Wed Mar  8 15:48:00 2023, MaxMem=  2684354560 cpu:               0.5 elap:               0.0
 (Enter /opt/gaussian/g16/l103.exe)

 GradGradGradGradGradGradGradGradGradGradGradGradGradGradGradGradGradGrad
 Berny optimization.
 Search for a local minimum.
 Step number   1 out of a maximum of    2
 All quantities printed in internal units (Hartrees-Bohrs-Radians)
 Second derivative matrix not updated -- first step.
 ITU=  0
     Eigenvalues ---    0.00040   0.00062   0.00099   0.00123   0.00152
     Eigenvalues ---    0.00159   0.00191   0.00220   0.00436   0.00521
     Eigenvalues ---    0.00583   0.00697   0.00790   0.00905   0.00961
     Eigenvalues ---    0.01047   0.01198   0.01247   0.01401   0.01544
     Eigenvalues ---    0.01786   0.01913   0.02197   0.02392   0.02566
     Eigenvalues ---    0.02904   0.03078   0.03685   0.03742   0.03862
     Eigenvalues ---    0.04306   0.04510   0.04759   0.04946   0.05033
     Eigenvalues ---    0.05068   0.05149   0.05471   0.05696   0.05798
     Eigenvalues ---    0.06022   0.06367   0.06677   0.06885   0.06956
     Eigenvalues ---    0.07197   0.07540   0.07695   0.08138   0.08390
     Eigenvalues ---    0.08425   0.08694   0.08750   0.09433   0.10253
     Eigenvalues ---    0.10800   0.11004   0.11181   0.11854   0.12175
     Eigenvalues ---    0.13012   0.13102   0.13240   0.13398   0.13556
     Eigenvalues ---    0.13817   0.14063   0.15071   0.15574   0.16029
     Eigenvalues ---    0.17579   0.17798   0.18194   0.18660   0.20107
     Eigenvalues ---    0.20345   0.20473   0.21126   0.22246   0.25352
     Eigenvalues ---    0.25569   0.26091   0.27684   0.28699   0.32455
     Eigenvalues ---    0.32860   0.33315   0.33496   0.36299   0.36742
     Eigenvalues ---    0.36742   0.36742   0.36742   0.36742   0.39802
     Eigenvalues ---    0.42692   0.46818   0.47475   0.53219   0.55941
     Eigenvalues ---    0.58853   0.59126   0.66246   0.69968   0.72084
     Eigenvalues ---    0.77228   0.77384   0.79156   0.81553   0.84941
     Eigenvalues ---    0.87824   0.89025   0.89922   0.91007   0.92430
     Eigenvalues ---    0.92829   0.92974   0.95543   0.96044   0.99392
     Eigenvalues ---    1.01330   1.03464   1.04527   1.04977   1.10528
     Eigenvalues ---    1.13618   1.22903   1.25628   1.26245   1.28345
     Eigenvalues ---    1.31319   1.32241   1.42981   1.51024   1.72065
     Eigenvalues ---    1.74218   1.79458   2.49054
 Quadratic step=3.656D+00 exceeds max=3.000D-01 adjusted using Lamda=-8.194D-02.
 Angle between NR and scaled steps=  69.98 degrees.
 Angle between quadratic step and forces=  48.73 degrees.
 Linear search not attempted -- first point.
 Variable       Old X    -DE/DX   Delta X   Delta X   Delta X     New X
                                 (Linear)    (Quad)   (Total)
    X1        6.58361   0.00295   0.00000  -0.01627  -0.01627   6.56734
    Y1       -6.71128   0.02713   0.00000   0.05991   0.05991  -6.65136
    Z1       -1.31619   0.00153   0.00000   0.01333   0.01333  -1.30287
    X2        6.54548   0.00066   0.00000  -0.00038  -0.00038   6.54510
    Y2       -6.88455  -0.00345   0.00000   0.00022   0.00022  -6.88432
    Z2       -3.38460   0.00683   0.00000   0.03054   0.03054  -3.35406
    X3        8.39226  -0.00724   0.00000  -0.03959  -0.03959   8.35267
    Y3       -7.40699  -0.00300   0.00000   0.00909   0.00909  -7.39790
    Z3       -0.56562  -0.00338   0.00000  -0.00344  -0.00344  -0.56906
    X4        3.05311  -0.00521   0.00000   0.02993   0.02993   3.08304
    Y4       -2.17106   0.02128   0.00000   0.02803   0.02803  -2.14302
    Z4        2.05551   0.02061   0.00000   0.01667   0.01667   2.07218
    X5        1.66975   0.01028   0.00000   0.07083   0.07083   1.74058
    Y5       -3.75546   0.00168   0.00000   0.00630   0.00630  -3.74916
    Z5        2.12301  -0.01187   0.00000  -0.06848  -0.06848   2.05453
    X6        2.53286   0.01757   0.00000   0.04859   0.04859   2.58145
    Y6       -0.55324  -0.01272   0.00000  -0.01233  -0.01233  -0.56557
    Z6        4.03718  -0.00529   0.00000   0.01401   0.01401   4.05119
    X7        0.74706  -0.00422   0.00000   0.02265   0.02265   0.76971
    Y7        0.30237  -0.00186   0.00000  -0.03463  -0.03463   0.26774
    Z7        3.97773  -0.00416   0.00000  -0.02311  -0.02311   3.95462
    X8        5.84694   0.01492   0.00000   0.00937   0.00937   5.85631
    Y8       -3.15067   0.00071   0.00000   0.02874   0.02874  -3.12193
    Z8        2.15293  -0.00568   0.00000  -0.02027  -0.02027   2.13265
    X9        6.15983  -0.00764   0.00000  -0.04069  -0.04069   6.11914
    Y9       -4.69408   0.00307   0.00000   0.00711   0.00711  -4.68697
    Z9        3.53597  -0.01098   0.00000  -0.06288  -0.06288   3.47309
   X10        7.36608  -0.00184   0.00000  -0.02145  -0.02145   7.34463
   Y10       -1.06346   0.00777   0.00000   0.03441   0.03441  -1.02905
   Z10        2.86748   0.00211   0.00000   0.00268   0.00268   2.87015
   X11        9.15790  -0.01020   0.00000  -0.04623  -0.04623   9.11167
   Y11       -1.43281  -0.00643   0.00000  -0.03626  -0.03626  -1.46907
   Z11        2.90541  -0.00186   0.00000  -0.00897  -0.00897   2.89643
   X12        3.15055   0.03109   0.00000   0.04066   0.04066   3.19122
   Y12       -0.81641  -0.02316   0.00000  -0.04271  -0.04271  -0.85912
   Z12       -0.55395   0.00253   0.00000  -0.00122  -0.00122  -0.55517
   X13        4.30822  -0.01202   0.00000  -0.03509  -0.03509   4.27313
   Y13        0.92303  -0.00597   0.00000  -0.02346  -0.02346   0.89957
   Z13       -0.38224   0.00195   0.00000   0.00946   0.00946  -0.37278
   X14        6.46812  -0.01863   0.00000  -0.04985  -0.04985   6.41827
   Y14       -3.85538   0.00196   0.00000   0.01712   0.01712  -3.83825
   Z14       -0.66505  -0.00091   0.00000  -0.00119  -0.00119  -0.66624
   X15        8.21027  -0.00582   0.00000  -0.02941  -0.02941   8.18086
   Y15       -2.89480  -0.00657   0.00000  -0.02448  -0.02448  -2.91928
   Z15       -1.32618   0.00973   0.00000   0.05466   0.05466  -1.27151
   X16        4.42705   0.00035   0.00000  -0.01010  -0.01010   4.41695
   Y16       -2.63226  -0.00334   0.00000  -0.02179  -0.02179  -2.65405
   Z16       -2.09052  -0.00248   0.00000  -0.03195  -0.03195  -2.12247
   X17        0.79641   0.00467   0.00000   0.00934   0.00934   0.80576
   Y17       -0.23291   0.00501   0.00000  -0.00117  -0.00117  -0.23408
   Z17       -1.85863   0.00641   0.00000   0.02411   0.02411  -1.83452
   X18       -0.87411  -0.00305   0.00000  -0.00409  -0.00409  -0.87820
   Y18       -2.11634  -0.00494   0.00000   0.00507   0.00507  -2.11127
   Z18       -2.26434  -0.00083   0.00000   0.00078   0.00078  -2.26356
   X19       -0.34226  -0.00157   0.00000  -0.00575  -0.00575  -0.34801
   Y19       -3.97318   0.00761   0.00000   0.02145   0.02145  -3.95173
   Z19       -1.54919  -0.00213   0.00000  -0.00601  -0.00601  -1.55520
   X20       -3.06632  -0.00915   0.00000  -0.00091  -0.00091  -3.06723
   Y20       -1.65534  -0.00256   0.00000   0.00302   0.00302  -1.65232
   Z20       -3.54990  -0.00330   0.00000  -0.00590  -0.00590  -3.55579
   X21       -4.41444   0.00541   0.00000   0.01171   0.01171  -4.40273
   Y21       -3.19282   0.00572   0.00000   0.01618   0.01618  -3.17664
   Z21       -3.82270   0.00131   0.00000  -0.00161  -0.00161  -3.82431
   X22       -3.58513   0.01692   0.00000   0.02701   0.02701  -3.55812
   Y22        0.77979   0.00532   0.00000  -0.00091  -0.00091   0.77888
   Z22       -4.46937   0.00214   0.00000  -0.00347  -0.00347  -4.47285
   X23       -5.33323   0.00552   0.00000   0.03228   0.03228  -5.30095
   Y23        1.17605  -0.00021   0.00000   0.00182   0.00182   1.17788
   Z23       -5.48828   0.00422   0.00000   0.01273   0.01273  -5.47555
   X24       -5.38644  -0.00363   0.00000  -0.00182  -0.00182  -5.38826
   Y24        2.45792   0.00440   0.00000   0.01506   0.01506   2.47299
   Z24       -0.85683   0.00761   0.00000   0.03312   0.03312  -0.82371
   X25       -1.74472  -0.01518   0.00000  -0.02384  -0.02384  -1.76855
   Y25        2.67819  -0.00625   0.00000  -0.00335  -0.00335   2.67485
   Z25       -4.09918  -0.00430   0.00000   0.01118   0.01118  -4.08800
   X26        0.40749  -0.00347   0.00000  -0.02638  -0.02638   0.38111
   Y26        2.12771   0.00544   0.00000   0.00104   0.00104   2.12875
   Z26       -2.72326   0.00119   0.00000   0.02342   0.02342  -2.69984
   X27        1.87386  -0.00734   0.00000  -0.04248  -0.04248   1.83139
   Y27        3.53882  -0.00516   0.00000  -0.00677  -0.00677   3.53205
   Z27       -2.36491   0.00096   0.00000   0.02068   0.02068  -2.34423
   X28       -2.16133  -0.01309   0.00000  -0.02737  -0.02737  -2.18870
   Y28        5.35530  -0.01120   0.00000  -0.00090  -0.00090   5.35440
   Z28       -5.02630  -0.00224   0.00000   0.02829   0.02829  -4.99802
   X29       -1.41494   0.01754   0.00000   0.06812   0.06812  -1.34681
   Y29        7.16544   0.01412   0.00000  -0.01002  -0.01002   7.15542
   Z29       -3.91531   0.01413   0.00000   0.01951   0.01951  -3.89581
   X30       -3.66392   0.00298   0.00000   0.00988   0.00988  -3.65404
   Y30        5.61042  -0.00932   0.00000  -0.01972  -0.01972   5.59069
   Z30       -7.11165  -0.00386   0.00000  -0.01211  -0.01211  -7.12376
   X31       -3.66182  -0.00256   0.00000  -0.01269  -0.01269  -3.67451
   Y31        7.37839   0.00105   0.00000  -0.01593  -0.01593   7.36246
   Z31       -7.81649  -0.00175   0.00000  -0.01612  -0.01612  -7.83260
   X32       -3.71329  -0.00202   0.00000  -0.00497  -0.00497  -3.71826
   Y32        4.18452   0.00021   0.00000  -0.01547  -0.01547   4.16905
   Z32       -8.36713  -0.00248   0.00000  -0.01672  -0.01672  -8.38385
   X33        1.72072  -0.00853   0.00000  -0.02082  -0.02082   1.69990
   Y33        4.00420  -0.01235   0.00000  -0.01990  -0.01990   3.98430
   Z33        7.39404  -0.01192   0.00000  -0.02666  -0.02666   7.36738
   X34       -1.68358   0.01478   0.00000   0.00138   0.00138  -1.68220
   Y34        3.86171  -0.05348   0.00000  -0.03418  -0.03418   3.82753
   Z34        3.23275   0.02104   0.00000  -0.00203  -0.00203   3.23073
   X35       -3.33352  -0.02503   0.00000  -0.01291  -0.01291  -3.34642
   Y35        5.01272   0.01443   0.00000   0.01225   0.01225   5.02496
   Z35        1.69721  -0.02393   0.00000  -0.02225  -0.02225   1.67496
   X36       -7.43802   0.00799   0.00000   0.02251   0.02251  -7.41551
   Y36        6.02669  -0.01345   0.00000  -0.02745  -0.02745   5.99924
   Z36       -0.57967   0.00506   0.00000   0.01635   0.01635  -0.56332
   X37       -5.77659   0.01050   0.00000   0.02446   0.02446  -5.75213
   Y37        3.91342   0.00741   0.00000   0.01610   0.01610   3.92952
   Z37        0.61034   0.00518   0.00000   0.01025   0.01025   0.62059
   X38       -1.60534  -0.01039   0.00000  -0.07292  -0.07292  -1.67826
   Y38        1.43533   0.02796   0.00000   0.00602   0.00602   1.44135
   Z38        3.78556  -0.00988   0.00000  -0.01986  -0.01986   3.76570
   X39        0.65794   0.01264   0.00000   0.02611   0.02611   0.68405
   Y39        5.82947   0.01231   0.00000   0.00263   0.00263   5.83211
   Z39        4.65858   0.00501   0.00000  -0.00686  -0.00686   4.65173
   X40        0.02519   0.00733   0.00000   0.01332   0.01332   0.03850
   Y40        3.31059   0.00108   0.00000  -0.00825  -0.00825   3.30235
   Z40        8.36713  -0.00050   0.00000   0.00249   0.00249   8.36962
   X41        2.85050  -0.00317   0.00000   0.00185   0.00185   2.85235
   Y41        2.41661   0.00501   0.00000  -0.00335  -0.00335   2.41327
   Z41        6.68569   0.00769   0.00000   0.03775   0.03775   6.72344
   X42       -9.15790   0.00307   0.00000   0.01937   0.01937  -9.13852
   Y42        5.18477   0.00516   0.00000   0.00905   0.00905   5.19382
   Z42       -1.38053   0.00094   0.00000   0.01116   0.01116  -1.36937
   X43       -6.36550  -0.00445   0.00000  -0.00951  -0.00951  -6.37501
   Y43        6.99157  -0.00084   0.00000  -0.00827  -0.00827   6.98330
   Z43       -2.07364   0.00330   0.00000   0.01928   0.01928  -2.05436
   X44       -7.95346   0.00038   0.00000   0.01071   0.01071  -7.94275
   Y44        7.40699  -0.00198   0.00000  -0.01615  -0.01615   7.39084
   Z44        0.87713  -0.00456   0.00000  -0.00990  -0.00990   0.86723
   X45       -6.82504   0.00445   0.00000   0.03017   0.03017  -6.79487
   Y45        2.95023   0.00186   0.00000   0.00714   0.00714   2.95737
   Z45        2.14438  -0.00837   0.00000  -0.01867  -0.01867   2.12571
   X46       -2.98856  -0.00444   0.00000  -0.03063  -0.03063  -3.01918
   Y46        7.01397  -0.00211   0.00000   0.01002   0.01002   7.02399
   Z46        1.36031   0.00080   0.00000   0.00135   0.00135   1.36166
   X47        4.99520   0.00125   0.00000   0.00120   0.00120   4.99639
   Y47       -7.71271  -0.00121   0.00000   0.01869   0.01869  -7.69402
   Z47       -0.46952  -0.00098   0.00000  -0.00231  -0.00231  -0.47182
   X48        2.85730  -0.00336   0.00000  -0.03835  -0.03835   2.81895
   Y48        5.17960   0.00390   0.00000   0.02351   0.02351   5.20311
   Z48        8.64680  -0.00466   0.00000  -0.04650  -0.04650   8.60030
         Item               Value     Threshold  Converged?
 Maximum Force            0.053481     0.000450     NO 
 RMS     Force            0.010315     0.000300     NO 
 Maximum Displacement     0.072925     0.001800     NO 
 RMS     Displacement     0.025003     0.001200     NO 
 Predicted change in Energy=-1.593631D-02
 GradGradGradGradGradGradGradGradGradGradGradGradGradGradGradGradGradGrad

 Leave Link  103 at Wed Mar  8 15:48:00 2023, MaxMem=  2684354560 cpu:               0.9 elap:               0.1
 (Enter /opt/gaussian/g16/l9999.exe)

 Test job not archived.
 1\1\GINC-JULIO-SYS\Force\RM062X\def2TZVP\C16H24N2O5S1\JVELAZQUEZ\08-Ma
 r-2023\0\\#P M062X/Def2TZVP scf=(direct,conver=8) EmpiricalDispersion=
 GD3 NoSymm Force pop=(NBORead) Charge Prop=(Field,Read)\\Gaussian run 
 using SANDER external interface, route from template gau_job.tpl\\0,1\
 C,3.483895621,-3.5514556959,-0.6964981459\H,3.4637193815,-3.6431451733
 ,-1.7910520219\H,4.440993178,-3.9196101369,-0.2993133714\C,1.615635386
 8,-1.148873511,1.0877272457\H,0.8835943628,-1.9873022371,1.1234474976\
 O,1.3403310736,-0.2927598846,2.1363827071\H,0.3953282679,0.1600068536,
 2.1049230206\C,3.0940676104,-1.6672623697,1.1392798602\H,3.259640975,-
 2.4840010916,1.8711532311\O,3.8979641908,-0.5627562238,1.517403488\H,4
 .8461516206,-0.7582129848,1.5374743956\C,1.6672018604,-0.4320237986,-0
 .2931377561\H,2.2798134787,0.4884489265,-0.2022710874\C,3.422782692,-2
 .0401766448,-0.351930508\H,4.3446861145,-1.5318610605,-0.7017819111\O,
 2.3426939854,-1.3929295939,-1.106254107\N,0.421442941,-0.1232509122,-0
 .9835466474\C,-0.4625564559,-1.1199205416,-1.1982368492\H,-0.181114573
 ,-2.1025154414,-0.8197975638\C,-1.6226277968,-0.8759676488,-1.8785248\
 H,-2.3360207175,-1.6895665689,-2.0228874634\C,-1.8971680686,0.41264825
 35,-2.3650911079\H,-2.8222263711,0.6223402888,-2.9042736677\H,-2.85038
 02277,1.3006754343,-0.4534137535\C,-0.9232641725,1.4172388064,-2.16919
 02403\C,0.2156364655,1.1259337651,-1.4410893062\H,0.9916046268,1.87266
 30592,-1.2514543651\C,-1.1437247296,2.8339023994,-2.6598059229\O,-0.74
 87530922,3.7917890833,-2.0718947118\N,-1.9388635262,2.9689040562,-3.76
 3324936\H,-1.9377494658,3.9044749437,-4.1363065496\H,-1.9649902601,2.2
 143499839,-4.4276939837\C,0.910566354,2.1189331457,3.9127570465\C,-0.8
 909104924,2.043528216,1.7106981003\C,-1.7640204989,2.6526145998,0.8981
 254937\C,-3.9360280675,3.1891880726,-0.3067492457\C,-3.0568414054,2.07
 08933673,0.322979638\O,-0.8495094371,0.7595428623,2.0032328776\S,0.348
 1657416,3.0848244899,2.4652150671\H,0.0133279471,1.7518908025,4.427693
 9837\H,1.5084202049,1.2788164087,3.5379156907\H,-4.8461516206,2.743662
 7485,-0.7305423968\H,-3.3684797132,3.6997771434,-1.097321228\H,-4.2087
 888987,3.9196101369,0.4641564009\H,-3.6116561235,1.5611950746,1.134756
 4231\H,-1.5814763373,3.7116345636,0.7198448049\H,2.6433435245,-4.08139
 05997,-0.2484566626\H,1.5120182589,2.7409284235,4.5756880236\\Version=
 ES64L-G16RevA.03\HF=-1507.8495846\RMSD=6.114e-09\RMSF=1.032e-02\Dipole
 =0.562189,-2.7454013,-4.0401421\Quadrupole=8.836377,-11.2488868,2.4125
 098,-4.3366729,11.5211238,-11.3150819\PG=C01 [X(C16H24N2O5S1)]\\@


 I DO NOT KNOW WHAT I MAY APPEAR TO THE WORLD; BUT TO MYSELF
 I SEEM TO HAVE BEEN ONLY LIKE A BOY PLAYING ON THE SEASHORE,
 AND DIVERTING MYSELF IN NOW AND THEN FINDING A SMOOTHER PEBBLE
 OR A PRETTIER SHELL THAN ORDINARY, WHILST THE GREAT OCEAN OF
 TRUTH LAY ALL UNDISCOVERED BEFORE ME.
                                          -- NEWTON (1642-1726)
 Job cpu time:       0 days  6 hours 54 minutes 20.7 seconds.
 Elapsed time:       0 days  0 hours 25 minutes 56.4 seconds.
 File lengths (MBytes):  RWF=    435 Int=      0 D2E=      0 Chk=     48 Scr=      1
 Normal termination of Gaussian 16 at Wed Mar  8 15:48:00 2023.
