 Entering Gaussian System, Link 0=g16
 Initial command:
 /opt/gaussian/g16/l1.exe "/opt/gaussian/scratch16/Gau-2712516.inp" -scrdir="/opt/gaussian/scratch16/"
 Entering Link 1 = /opt/gaussian/g16/l1.exe PID=   2712518.
  
 Copyright (c) 1988,1990,1992,1993,1995,1998,2003,2009,2016,
            Gaussian, Inc.  All Rights Reserved.
  
 This is part of the Gaussian(R) 16 program.  It is based on
 the Gaussian(R) 09 system (copyright 2009, Gaussian, Inc.),
 the Gaussian(R) 03 system (copyright 2003, Gaussian, Inc.),
 the Gaussian(R) 98 system (copyright 1998, Gaussian, Inc.),
 the Gaussian(R) 94 system (copyright 1995, Gaussian, Inc.),
 the Gaussian 92(TM) system (copyright 1992, Gaussian, Inc.),
 the Gaussian 90(TM) system (copyright 1990, Gaussian, Inc.),
 the Gaussian 88(TM) system (copyright 1988, Gaussian, Inc.),
 the Gaussian 86(TM) system (copyright 1986, Carnegie Mellon
 University), and the Gaussian 82(TM) system (copyright 1983,
 Carnegie Mellon University). Gaussian is a federally registered
 trademark of Gaussian, Inc.
  
 This software contains proprietary and confidential information,
 including trade secrets, belonging to Gaussian, Inc.
  
 This software is provided under written license and may be
 used, copied, transmitted, or stored only in accord with that
 written license.
  
 The following legend is applicable only to US Government
 contracts under FAR:
  
                    RESTRICTED RIGHTS LEGEND
  
 Use, reproduction and disclosure by the US Government is
 subject to restrictions as set forth in subparagraphs (a)
 and (c) of the Commercial Computer Software - Restricted
 Rights clause in FAR 52.227-19.
  
 Gaussian, Inc.
 340 Quinnipiac St., Bldg. 40, Wallingford CT 06492
  
  
 ---------------------------------------------------------------
 Warning -- This program may not be used in any manner that
 competes with the business of Gaussian, Inc. or will provide
 assistance to any competitor of Gaussian, Inc.  The licensee
 of this program is prohibited from giving any competitor of
 Gaussian, Inc. access to this program.  By using this program,
 the user acknowledges that Gaussian, Inc. is engaged in the
 business of creating and licensing software in the field of
 computational chemistry and represents and warrants to the
 licensee that it is not a competitor of Gaussian, Inc. and that
 it will not use this program in any manner prohibited above.
 ---------------------------------------------------------------
  

 Cite this work as:
 Gaussian 16, Revision A.03,
 M. J. Frisch, G. W. Trucks, H. B. Schlegel, G. E. Scuseria, 
 M. A. Robb, J. R. Cheeseman, G. Scalmani, V. Barone, 
 G. A. Petersson, H. Nakatsuji, X. Li, M. Caricato, A. V. Marenich, 
 J. Bloino, B. G. Janesko, R. Gomperts, B. Mennucci, H. P. Hratchian, 
 J. V. Ortiz, A. F. Izmaylov, J. L. Sonnenberg, D. Williams-Young, 
 F. Ding, F. Lipparini, F. Egidi, J. Goings, B. Peng, A. Petrone, 
 T. Henderson, D. Ranasinghe, V. G. Zakrzewski, J. Gao, N. Rega, 
 G. Zheng, W. Liang, M. Hada, M. Ehara, K. Toyota, R. Fukuda, 
 J. Hasegawa, M. Ishida, T. Nakajima, Y. Honda, O. Kitao, H. Nakai, 
 T. Vreven, K. Throssell, J. A. Montgomery, Jr., J. E. Peralta, 
 F. Ogliaro, M. J. Bearpark, J. J. Heyd, E. N. Brothers, K. N. Kudin, 
 V. N. Staroverov, T. A. Keith, R. Kobayashi, J. Normand, 
 K. Raghavachari, A. P. Rendell, J. C. Burant, S. S. Iyengar, 
 J. Tomasi, M. Cossi, J. M. Millam, M. Klene, C. Adamo, R. Cammi, 
 J. W. Ochterski, R. L. Martin, K. Morokuma, O. Farkas, 
 J. B. Foresman, and D. J. Fox, Gaussian, Inc., Wallingford CT, 2016.
 
 ******************************************
 Gaussian 16:  ES64L-G16RevA.03 25-Dec-2016
                 8-Mar-2023 
 ******************************************
 %chk=32.chk
 %NProcShared=16
 Will use up to   16 processors via shared memory.
 %mem=20GB
 ----------------------------------------------------------------------
 #P M062X/Def2TZVP scf=(direct,conver=8) EmpiricalDispersion=GD3 NoSymm
  Force pop=(NBORead) Charge Prop=(Field,Read)
 ----------------------------------------------------------------------
 1/10=7,18=10,28=-2,30=1,38=1,125=101/1,3;
 2/12=2,15=1,17=6,18=5,29=2,40=1/2;
 3/5=44,7=101,11=2,25=1,30=1,71=1,74=-55,124=31/1,2,3;
 4//1;
 5/5=2,6=8,38=5/2;
 6/7=2,8=2,9=2,10=2,14=2,15=1,28=1,40=2/1,2,7;
 7/7=1,16=-2,29=1,30=1/1,2,3,16;
 1/10=7,18=10,28=-2,30=1/3;
 99/12=1/99;
 Leave Link    1 at Wed Mar  8 15:23:32 2023, MaxMem=  2684354560 cpu:               1.4 elap:               0.1
 (Enter /opt/gaussian/g16/l101.exe)
 ----------------------------------------------------------------------
 Gaussian run using SANDER external interface, route from template gau_
 job.tpl
 ----------------------------------------------------------------------
 Symbolic Z-matrix:
 Charge =  0 Multiplicity = 1
 C                     3.48669  -3.5571   -0.69138 
 H                     3.46746  -3.64929  -1.78591 
 H                     4.44277  -3.92531  -0.29228 
 C                     1.61562  -1.15331   1.08924 
 H                     0.88479  -1.99277   1.12636 
 O                     1.3383   -0.29771   2.13764 
 H                     0.38948   0.15801   2.10986 
 C                     3.0947   -1.67143   1.14256 
 H                     3.26011  -2.4877    1.87513 
 O                     3.89856  -0.56642   1.52045 
 H                     4.84632  -0.76183   1.54091 
 C                     1.67171  -0.43757  -0.29259 
 H                     2.28522   0.48153  -0.19892 
 C                     3.42577  -2.04533  -0.34786 
 H                     4.34786  -1.53715  -0.69771 
 O                     2.34831  -1.39965  -1.10377 
 N                     0.43177  -0.1286   -0.99165 
 C                    -0.45826  -1.12149  -1.19481 
 H                    -0.19688  -2.09633  -0.78686 
 C                    -1.61814  -0.87668  -1.87879 
 H                    -2.34047  -1.68365  -2.00807 
 C                    -1.87205   0.40177  -2.39707 
 H                    -2.7898    0.61077  -2.94918 
 H                    -2.88091   1.29302  -0.41031 
 C                    -0.90436   1.40782  -2.19003 
 C                     0.2333    1.11824  -1.45544 
 H                     0.9982    1.87033  -1.24658 
 C                    -1.1295    2.82694  -2.67099 
 O                    -0.74051   3.77662  -2.06859 
 N                    -1.93113   2.96577  -3.7677 
 H                    -1.93877   3.90088  -4.14313 
 H                    -1.9708    2.20802  -4.42802 
 C                     0.90978   2.11789   3.91299 
 C                    -0.88945   2.04349   1.71101 
 C                    -1.75798   2.64769   0.8938 
 C                    -3.94028   3.19022  -0.30127 
 C                    -3.06448   2.07626   0.33986 
 O                    -0.84974   0.76083   2.01563 
 S                     0.34775   3.08744   2.46757 
 H                     0.01412   1.74658   4.42802 
 H                     1.50917   1.28034   3.5344 
 H                    -4.84632   2.74386  -0.72792 
 H                    -3.36492   3.69876  -1.0824 
 H                    -4.22498   3.92531   0.46117 
 H                    -3.61501   1.59987   1.17341 
 H                    -1.5649    3.70143   0.69904 
 H                     2.64502  -4.08606  -0.24429 
 H                     1.51079   2.73921   4.57696 
 
 ITRead=  0  0  0  0  0  0  0  0  0  0  0  0  0  0  0  0  0  0  0  0
 ITRead=  0  0  0  0  0  0  0  0  0  0  0  0  0  0  0  0  0  0  0  0
 ITRead=  0  0  0  0  0  0  0  0
 MicOpt= -1 -1 -1 -1 -1 -1 -1 -1 -1 -1 -1 -1 -1 -1 -1 -1 -1 -1 -1 -1
 MicOpt= -1 -1 -1 -1 -1 -1 -1 -1 -1 -1 -1 -1 -1 -1 -1 -1 -1 -1 -1 -1
 MicOpt= -1 -1 -1 -1 -1 -1 -1 -1
 NAtoms=     48 NQM=       48 NQMF=       0 NMMI=      0 NMMIF=      0
                NMic=       0 NMicF=      0.
                    Isotopes and Nuclear Properties:
 (Nuclear quadrupole moments (NQMom) in fm**2, nuclear magnetic moments (NMagM)
  in nuclear magnetons)

  Atom         1           2           3           4           5           6           7           8           9          10
 IAtWgt=          12           1           1          12           1          16           1          12           1          16
 AtmWgt=  12.0000000   1.0078250   1.0078250  12.0000000   1.0078250  15.9949146   1.0078250  12.0000000   1.0078250  15.9949146
 NucSpn=           0           1           1           0           1           0           1           0           1           0
 AtZEff=  -0.0000000  -0.0000000  -0.0000000  -0.0000000  -0.0000000  -0.0000000  -0.0000000  -0.0000000  -0.0000000  -0.0000000
 NQMom=    0.0000000   0.0000000   0.0000000   0.0000000   0.0000000   0.0000000   0.0000000   0.0000000   0.0000000   0.0000000
 NMagM=    0.0000000   2.7928460   2.7928460   0.0000000   2.7928460   0.0000000   2.7928460   0.0000000   2.7928460   0.0000000
 AtZNuc=   6.0000000   1.0000000   1.0000000   6.0000000   1.0000000   8.0000000   1.0000000   6.0000000   1.0000000   8.0000000

  Atom        11          12          13          14          15          16          17          18          19          20
 IAtWgt=           1          12           1          12           1          16          14          12           1          12
 AtmWgt=   1.0078250  12.0000000   1.0078250  12.0000000   1.0078250  15.9949146  14.0030740  12.0000000   1.0078250  12.0000000
 NucSpn=           1           0           1           0           1           0           2           0           1           0
 AtZEff=  -0.0000000  -0.0000000  -0.0000000  -0.0000000  -0.0000000  -0.0000000  -0.0000000  -0.0000000  -0.0000000  -0.0000000
 NQMom=    0.0000000   0.0000000   0.0000000   0.0000000   0.0000000   0.0000000   2.0440000   0.0000000   0.0000000   0.0000000
 NMagM=    2.7928460   0.0000000   2.7928460   0.0000000   2.7928460   0.0000000   0.4037610   0.0000000   2.7928460   0.0000000
 AtZNuc=   1.0000000   6.0000000   1.0000000   6.0000000   1.0000000   8.0000000   7.0000000   6.0000000   1.0000000   6.0000000

  Atom        21          22          23          24          25          26          27          28          29          30
 IAtWgt=           1          12           1           1          12          12           1          12          16          14
 AtmWgt=   1.0078250  12.0000000   1.0078250   1.0078250  12.0000000  12.0000000   1.0078250  12.0000000  15.9949146  14.0030740
 NucSpn=           1           0           1           1           0           0           1           0           0           2
 AtZEff=  -0.0000000  -0.0000000  -0.0000000  -0.0000000  -0.0000000  -0.0000000  -0.0000000  -0.0000000  -0.0000000  -0.0000000
 NQMom=    0.0000000   0.0000000   0.0000000   0.0000000   0.0000000   0.0000000   0.0000000   0.0000000   0.0000000   2.0440000
 NMagM=    2.7928460   0.0000000   2.7928460   2.7928460   0.0000000   0.0000000   2.7928460   0.0000000   0.0000000   0.4037610
 AtZNuc=   1.0000000   6.0000000   1.0000000   1.0000000   6.0000000   6.0000000   1.0000000   6.0000000   8.0000000   7.0000000

  Atom        31          32          33          34          35          36          37          38          39          40
 IAtWgt=           1           1          12          12          12          12          12          16          32           1
 AtmWgt=   1.0078250   1.0078250  12.0000000  12.0000000  12.0000000  12.0000000  12.0000000  15.9949146  31.9720718   1.0078250
 NucSpn=           1           1           0           0           0           0           0           0           0           1
 AtZEff=  -0.0000000  -0.0000000  -0.0000000  -0.0000000  -0.0000000  -0.0000000  -0.0000000  -0.0000000  -0.0000000  -0.0000000
 NQMom=    0.0000000   0.0000000   0.0000000   0.0000000   0.0000000   0.0000000   0.0000000   0.0000000   0.0000000   0.0000000
 NMagM=    2.7928460   2.7928460   0.0000000   0.0000000   0.0000000   0.0000000   0.0000000   0.0000000   0.0000000   2.7928460
 AtZNuc=   1.0000000   1.0000000   6.0000000   6.0000000   6.0000000   6.0000000   6.0000000   8.0000000  16.0000000   1.0000000

  Atom        41          42          43          44          45          46          47          48
 IAtWgt=           1           1           1           1           1           1           1           1
 AtmWgt=   1.0078250   1.0078250   1.0078250   1.0078250   1.0078250   1.0078250   1.0078250   1.0078250
 NucSpn=           1           1           1           1           1           1           1           1
 AtZEff=  -0.0000000  -0.0000000  -0.0000000  -0.0000000  -0.0000000  -0.0000000  -0.0000000  -0.0000000
 NQMom=    0.0000000   0.0000000   0.0000000   0.0000000   0.0000000   0.0000000   0.0000000   0.0000000
 NMagM=    2.7928460   2.7928460   2.7928460   2.7928460   2.7928460   2.7928460   2.7928460   2.7928460
 AtZNuc=   1.0000000   1.0000000   1.0000000   1.0000000   1.0000000   1.0000000   1.0000000   1.0000000
 Background charge distribution read from input stream:
 Leave Link  101 at Wed Mar  8 15:23:32 2023, MaxMem=  2684354560 cpu:               3.7 elap:               0.2
 (Enter /opt/gaussian/g16/l103.exe)

 GradGradGradGradGradGradGradGradGradGradGradGradGradGradGradGradGradGrad
 Berny optimization.
 Initialization pass.
 Trust Radius=3.00D-01 FncErr=1.00D-07 GrdErr=1.00D-07 EigMax=2.50D+02 EigMin=1.00D-04
 Number of steps in this run=      2 maximum allowed number of steps=      2.
 GradGradGradGradGradGradGradGradGradGradGradGradGradGradGradGradGradGrad

 Leave Link  103 at Wed Mar  8 15:23:32 2023, MaxMem=  2684354560 cpu:               0.4 elap:               0.0
 (Enter /opt/gaussian/g16/l202.exe)
 ---------------------------------------------------------------------------------------------------
                            Z-MATRIX (ANGSTROMS AND DEGREES)
   CD    Cent   Atom    N1       Length/X        N2       Alpha/Y        N3        Beta/Z          J
 ---------------------------------------------------------------------------------------------------
      1      1  C        0   3.486692         -3.557100         -0.691378
      2      2  H        0   3.467459         -3.649288         -1.785911
      3      3  H        0   4.442768         -3.925308         -0.292277
      4      4  C        0   1.615622         -1.153314          1.089239
      5      5  H        0   0.884791         -1.992766          1.126364
      6      6  O        0   1.338304         -0.297707          2.137638
      7      7  H        0   0.389478          0.158006          2.109863
      8      8  C        0   3.094702         -1.671427          1.142563
      9      9  H        0   3.260111         -2.487697          1.875127
     10     10  O        0   3.898556         -0.566420          1.520449
     11     11  H        0   4.846315         -0.761833          1.540912
     12     12  C        0   1.671711         -0.437567         -0.292590
     13     13  H        0   2.285220          0.481528         -0.198920
     14     14  C        0   3.425766         -2.045325         -0.347864
     15     15  H        0   4.347856         -1.537149         -0.697714
     16     16  O        0   2.348314         -1.399651         -1.103766
     17     17  N        0   0.431770         -0.128602         -0.991653
     18     18  C        0  -0.458260         -1.121494         -1.194811
     19     19  H        0  -0.196875         -2.096334         -0.786863
     20     20  C        0  -1.618138         -0.876682         -1.878792
     21     21  H        0  -2.340475         -1.683646         -2.008072
     22     22  C        0  -1.872046          0.401773         -2.397071
     23     23  H        0  -2.789796          0.610767         -2.949178
     24     24  H        0  -2.880911          1.293021         -0.410307
     25     25  C        0  -0.904362          1.407821         -2.190032
     26     26  C        0   0.233298          1.118243         -1.455436
     27     27  H        0   0.998200          1.870331         -1.246583
     28     28  C        0  -1.129502          2.826939         -2.670994
     29     29  O        0  -0.740509          3.776622         -2.068592
     30     30  N        0  -1.931132          2.965769         -3.767699
     31     31  H        0  -1.938773          3.900883         -4.143132
     32     32  H        0  -1.970799          2.208015         -4.428015
     33     33  C        0   0.909784          2.117894          3.912990
     34     34  C        0  -0.889449          2.043487          1.711015
     35     35  C        0  -1.757976          2.647686          0.893799
     36     36  C        0  -3.940281          3.190225         -0.301266
     37     37  C        0  -3.064483          2.076260          0.339858
     38     38  O        0  -0.849740          0.760829          2.015629
     39     39  S        0   0.347753          3.087437          2.467570
     40     40  H        0   0.014123          1.746580          4.428015
     41     41  H        0   1.509169          1.280340          3.534401
     42     42  H        0  -4.846315          2.743864         -0.727922
     43     43  H        0  -3.364915          3.698758         -1.082398
     44     44  H        0  -4.224984          3.925308          0.461167
     45     45  H        0  -3.615010          1.599866          1.173411
     46     46  H        0  -1.564900          3.701430          0.699038
     47     47  H        0   2.645021         -4.086060         -0.244286
     48     48  H        0   1.510787          2.739214          4.576961
 ---------------------------------------------------------------------------------------------------
                         Z-Matrix orientation:                         
 ---------------------------------------------------------------------
 Center     Atomic      Atomic             Coordinates (Angstroms)
 Number     Number       Type             X           Y           Z
 ---------------------------------------------------------------------
      1          6           0        3.486692   -3.557100   -0.691378
      2          1           0        3.467459   -3.649288   -1.785911
      3          1           0        4.442768   -3.925308   -0.292277
      4          6           0        1.615622   -1.153314    1.089239
      5          1           0        0.884791   -1.992766    1.126364
      6          8           0        1.338304   -0.297707    2.137638
      7          1           0        0.389478    0.158006    2.109863
      8          6           0        3.094702   -1.671427    1.142563
      9          1           0        3.260111   -2.487697    1.875127
     10          8           0        3.898556   -0.566420    1.520449
     11          1           0        4.846315   -0.761833    1.540912
     12          6           0        1.671711   -0.437567   -0.292590
     13          1           0        2.285220    0.481528   -0.198920
     14          6           0        3.425766   -2.045325   -0.347864
     15          1           0        4.347856   -1.537149   -0.697714
     16          8           0        2.348314   -1.399651   -1.103766
     17          7           0        0.431770   -0.128602   -0.991653
     18          6           0       -0.458260   -1.121494   -1.194811
     19          1           0       -0.196875   -2.096334   -0.786863
     20          6           0       -1.618138   -0.876682   -1.878792
     21          1           0       -2.340475   -1.683646   -2.008072
     22          6           0       -1.872046    0.401773   -2.397071
     23          1           0       -2.789796    0.610767   -2.949178
     24          1           0       -2.880911    1.293021   -0.410307
     25          6           0       -0.904362    1.407821   -2.190032
     26          6           0        0.233298    1.118243   -1.455436
     27          1           0        0.998200    1.870331   -1.246583
     28          6           0       -1.129502    2.826939   -2.670994
     29          8           0       -0.740509    3.776622   -2.068592
     30          7           0       -1.931132    2.965769   -3.767699
     31          1           0       -1.938773    3.900883   -4.143132
     32          1           0       -1.970799    2.208015   -4.428015
     33          6           0        0.909784    2.117894    3.912990
     34          6           0       -0.889449    2.043487    1.711015
     35          6           0       -1.757976    2.647686    0.893799
     36          6           0       -3.940281    3.190225   -0.301266
     37          6           0       -3.064483    2.076260    0.339858
     38          8           0       -0.849740    0.760829    2.015629
     39         16           0        0.347753    3.087437    2.467570
     40          1           0        0.014123    1.746580    4.428015
     41          1           0        1.509169    1.280340    3.534401
     42          1           0       -4.846315    2.743864   -0.727922
     43          1           0       -3.364915    3.698758   -1.082398
     44          1           0       -4.224984    3.925308    0.461167
     45          1           0       -3.615010    1.599866    1.173411
     46          1           0       -1.564900    3.701430    0.699038
     47          1           0        2.645021   -4.086060   -0.244286
     48          1           0        1.510787    2.739214    4.576961
 ---------------------------------------------------------------------
                    Distance matrix (angstroms):
                    1          2          3          4          5
     1  C    0.000000
     2  H    1.098577   0.000000
     3  H    1.099519   1.805092   0.000000
     4  C    3.528411   4.233872   4.193482   0.000000
     5  H    3.538533   4.230318   4.290275   1.113630   0.000000
     6  O    4.821052   5.582171   5.357394   1.381344   2.025235
     7  H    5.589427   6.256718   6.234813   2.065106   2.416283
     8  C    2.659466   3.553427   2.992662   1.568108   2.233211
     9  H    2.789608   3.846490   2.857104   2.258881   2.539241
    10  O    3.742456   4.541138   3.855420   2.396283   3.357461
    11  H    3.826906   4.615885   3.678451   3.285521   4.169019
    12  C    3.631070   3.971130   4.454558   1.557206   2.247514
    13  H    4.242236   4.580379   4.907538   2.186418   3.136831
    14  C    1.551508   2.154626   2.138158   2.477412   2.938139
    15  H    2.195871   2.533852   2.424189   3.287192   3.940516
    16  O    2.473975   2.603589   3.379969   2.325250   2.732611
    17  N    4.601881   4.716088   5.567064   2.604160   2.857679
    18  C    4.663504   4.706423   5.718043   3.085268   2.819708
    19  H    3.963789   4.103305   5.011592   2.773840   2.200265
    20  C    5.886754   5.793036   6.967477   4.398060   4.067094
    21  H    6.260941   6.135568   7.347203   5.052255   4.508057
    22  C    6.877364   6.730151   7.939186   5.170733   5.074304
    23  H    7.865309   7.658623   8.941202   6.231252   6.073798
    24  H    8.009310   8.162139   8.993396   5.334042   5.228601
    25  C    6.795422   6.697051   7.786883   4.864499   5.075780
    26  C    5.746929   5.770474   6.671580   3.680511   4.094937
    27  H    5.996487   6.070775   6.809198   3.870363   4.535115
    28  C    8.123059   7.991054   9.072008   6.125151   6.458085
    29  O    8.576096   8.539968   9.452057   6.310905   6.792288
    30  N    9.020221   8.765344  10.009601   7.289455   7.514542
    31  H    9.847425   9.580653  10.807516   8.096687   8.394951
    32  H    8.774008   8.418039   9.790599   7.389252   7.526758
    33  C    7.748949   8.501739   8.166182   4.378651   4.966229
    34  C    7.502578   7.976142   8.250590   4.108713   4.447593
    35  C    8.277602   8.610337   9.113740   5.085957   5.345288
    36  C   10.041838  10.191061  10.995745   7.188038   7.223769
    37  C    8.701499   8.942430   9.632094   5.735425   5.724712
    38  O    6.691565   7.248382   7.436192   3.255787   3.373674
    39  S    7.998860   8.556175   8.576974   4.635867   5.281639
    40  H    8.148370   8.924898   8.606065   4.703362   5.063760
    41  H    6.720761   7.512780   7.095649   3.451496   4.111169
    42  H   10.447128  10.540901  11.443545   7.761875   7.662873
    43  H    9.987237  10.058333  10.941234   7.284529   7.438554
    44  H   10.806698  11.027128  11.718778   7.765278   7.847030
    45  H    8.972508   9.299063   9.879452   5.911564   5.758248
    46  H    8.951989   9.248388   9.759197   5.816917   6.213491
    47  H    1.090000   1.801050   1.805558   3.382151   3.059243
    48  H    8.444120   9.226465   8.759100   5.227521   5.889832
                    6          7          8          9         10
     6  O    0.000000
     7  H    1.052956   0.000000
     8  C    2.441765   3.405985   0.000000
     9  H    2.925459   3.910930   1.109192   0.000000
    10  O    2.647266   3.631230   1.417751   2.055410   0.000000
    11  H    3.588543   4.586198   2.013502   2.367773   0.967912
    12  C    2.456975   2.787582   2.367905   3.380095   2.874465
    13  H    2.638818   3.004827   2.662715   3.750783   2.580170
    14  C    3.686378   4.484879   1.571870   2.272624   2.429256
    15  H    4.316577   5.140506   2.230480   2.950634   2.462607
    16  O    3.569467   4.073174   2.382635   3.299851   3.159750
    17  N    3.262339   3.115018   3.745182   4.667254   4.303596
    18  C    3.874465   3.643714   4.288273   5.011717   5.163583
    19  H    3.760923   3.717107   3.838973   4.380652   4.943367
    20  C    5.020703   4.583718   5.654296   6.362749   6.487296
    21  H    5.713243   5.272733   6.282340   6.862382   7.254250
    22  C    5.599929   5.048403   6.441720   7.275971   7.041606
    23  H    6.613791   5.992218   7.521840   8.335213   8.130030
    24  H    5.179210   4.281935   6.848892   7.564998   7.290166
    25  C    5.164020   4.661026   6.048179   7.003100   6.382266
    26  C    4.016980   3.695647   4.766497   5.766892   5.012793
    27  H    4.033486   3.816849   4.758928   5.818395   4.691086
    28  C    6.243109   5.682174   7.254131   8.257195   7.373225
    29  O    6.214015   5.641874   7.396053   8.414248   7.298229
    30  N    7.497498   6.914803   8.418626   9.409079   8.627058
    31  H    8.235014   7.650479   9.182869  10.201068   9.279405
    32  H    7.767664   7.246882   8.469989   9.441490   8.805172
    33  C    3.028305   2.713512   5.177653   5.557732   4.675741
    34  C    3.259767   2.312958   5.476969   6.146333   5.456457
    35  C    4.450777   3.505549   6.501162   7.246817   6.536017
    36  C    6.780662   5.809880   8.672444   9.424496   8.881351
    37  C    5.315285   4.329256   7.254313   7.949040   7.540654
    38  O    2.433705   1.381281   4.715585   5.240566   4.955109
    39  S    3.542491   2.951485   5.652270   6.317826   5.182269
    40  H    3.343410   2.835187   5.653931   5.914623   5.375195
    41  H    2.114326   2.131350   4.116763   4.474046   3.629834
    42  H    7.464054   6.492551   9.276490   9.992959   9.616960
    43  H    6.961367   6.068190   8.689994   9.534681   8.816154
    44  H    7.182936   6.180940   9.239348   9.957537   9.342890
    45  H    5.391274   4.357961   7.464754   8.029188   7.827317
    46  H    5.146966   4.285543   7.125742   7.935314   6.981305
    47  H    4.661833   5.351783   2.820641   2.724887   4.132009
    48  H    3.899094   3.742531   5.810132   6.138455   5.096167
                   11         12         13         14         15
    11  H    0.000000
    12  C    3.680352   0.000000
    13  H    3.336491   1.109010   0.000000
    14  C    2.689385   2.380052   2.776331   0.000000
    15  H    2.420955   2.921465   2.928876   1.109455   0.000000
    16  O    3.693392   1.428777   2.088435   1.466009   2.044982
    17  N    5.128652   1.456572   2.106172   3.612797   4.172065
    18  C    5.979302   2.412164   3.329889   4.081230   4.849601
    19  H    5.712548   2.547044   3.626548   3.649500   4.579871
    20  C    7.314145   3.678582   4.461267   5.399114   6.117535
    21  H    8.068146   4.537976   5.418307   6.011375   6.817057
    22  C    7.873886   4.206133   4.703307   6.185010   6.733084
    23  H    8.964103   5.297312   5.773769   7.242574   7.786444
    24  H    8.230414   4.871875   5.233748   7.136010   7.768368
    25  C    7.190107   3.693494   3.872464   5.836764   6.203681
    26  C    5.813151   2.416979   2.488900   4.628902   4.955283
    27  H    5.431981   2.586526   2.163976   4.693947   4.809612
    28  C    8.144313   4.915344   4.824151   7.063028   7.276026
    29  O    8.052248   5.170337   4.848542   7.363004   7.483777
    30  N    9.381373   6.053062   6.056836   8.093373   8.314251
    31  H   10.004334   6.832600   6.714977   8.862264   8.998044
    32  H    9.535258   6.112997   6.243373   7.991336   8.238131
    33  C    5.423639   4.979740   4.634363   6.466640   6.814563
    34  C    6.387312   4.090184   4.020708   6.291141   6.786184
    35  C    7.460579   4.763303   4.715264   7.101919   7.571455
    36  C    9.809009   6.682470   6.790020   9.037245   9.549788
    37  C    8.489878   5.399153   5.608277   7.719051   8.311200
    38  O    5.915142   3.622394   3.848403   5.633875   6.297454
    39  S    5.992715   4.668726   4.201751   6.614082   6.885248
    40  H    6.162595   5.459140   5.307237   6.987623   7.472430
    41  H    4.391015   4.198034   3.895901   5.459430   5.822988
    42  H   10.553891   7.266064   7.500454   9.565987  10.142030
    43  H    9.705820   6.565104   6.561641   8.924539   9.330035
    44  H   10.267600   7.373862   7.394464   9.738427  10.231081
    45  H    8.792423   5.852325   6.160088   8.073055   8.760662
    46  H    7.857045   5.346988   5.098777   7.682965   8.022114
    47  H    4.368422   3.776395   4.581961   2.187439   3.098740
    48  H    5.709700   5.816387   5.339095   7.128314   7.359241
                   16         17         18         19         20
    16  O    0.000000
    17  N    2.302450   0.000000
    18  C    2.821794   1.348800   0.000000
    19  H    2.657778   2.075838   1.088603   0.000000
    20  C    4.075157   2.355581   1.368605   2.167913   0.000000
    21  H    4.783635   3.337156   2.126062   2.501336   1.090722
    22  C    4.767516   2.750285   2.400950   3.411672   1.402687
    23  H    5.817861   3.841493   3.393316   4.327499   2.175090
    24  H    5.922514   3.651416   3.509212   4.339767   2.908377
    25  C    4.431905   2.362617   2.754434   3.840381   2.413566
    26  C    3.307077   1.345031   2.358516   3.311427   2.754409
    27  H    3.540620   2.093220   3.327909   4.168211   3.845906
    28  C    5.693459   3.740720   4.268466   5.353351   3.818790
    29  O    6.104549   4.217204   4.983442   6.035725   4.739145
    30  N    6.668365   4.781723   5.049240   6.125187   4.293060
    31  H    7.464082   5.638089   6.009058   7.089807   5.296713
    32  H    6.536102   4.800074   4.881292   5.910349   4.017246
    33  C    6.293674   5.415788   6.201194   6.408825   6.993040
    34  C    5.501027   3.710526   4.318200   4.884381   4.684558
    35  C    6.101870   4.007205   4.500918   5.269477   4.486422
    36  C    7.826710   5.532276   5.613716   6.495891   4.941727
    37  C    6.592752   4.342594   4.401504   5.186831   3.966634
    38  O    4.962443   3.387786   3.742101   4.055068   4.293994
    39  S    6.073766   4.724001   5.637179   6.144871   6.202405
    40  H    6.778482   5.750090   6.329705   6.481317   7.022933
    41  H    5.422094   4.861180   5.657299   5.743330   6.613278
    42  H    8.310997   6.014882   5.866345   6.711802   4.985377
    43  H    7.657364   5.391822   5.629930   6.611121   4.961868
    44  H    8.603049   6.342731   6.511580   7.351422   5.943918
    45  H    7.052933   4.904236   4.793677   5.402612   4.408710
    46  H    6.677154   4.638349   5.298293   6.139501   5.254251
    47  H    2.836112   4.595487   4.395737   3.511377   5.580881
    48  H    7.078298   6.355950   7.217725   7.420866   8.033780
                   21         22         23         24         25
    21  H    0.000000
    22  C    2.172491   0.000000
    23  H    2.520298   1.091222   0.000000
    24  H    3.421326   2.399868   2.630521   0.000000
    25  C    3.413604   1.411174   2.183222   2.662207   0.000000
    26  C    3.844515   2.415053   3.409970   3.289550   1.384831
    27  H    4.935318   3.423244   4.339844   4.010007   2.173420
    28  C    4.717128   2.551046   2.783053   3.245157   1.515226
    29  O    5.690173   3.574616   3.872680   3.674166   2.377564
    30  N    4.988076   2.907952   2.636914   3.869398   2.443459
    31  H    5.992229   3.911132   3.602031   4.650005   3.331661
    32  H    4.597588   2.719742   2.325708   4.219893   2.605027
    33  C    7.750797   7.106372   7.940257   5.808673   6.406419
    34  C    5.461556   4.531787   5.232724   3.004850   3.952526
    35  C    5.246007   3.985845   4.470142   2.190158   3.431608
    36  C    5.406217   4.055300   3.871518   2.175669   3.995147
    37  C    4.491531   3.422951   3.611216   1.099959   3.393122
    38  O    4.938412   4.543782   5.332508   3.208434   4.255486
    39  S    7.072564   5.983731   6.731959   4.682561   5.107069
    40  H    7.663797   7.207492   7.973394   5.656527   6.690061
    41  H    7.370480   6.883812   7.808088   5.902007   6.213737
    42  H    5.246033   4.137358   3.703155   2.463460   4.411550
    43  H    5.556674   3.850603   3.653946   2.544315   3.539713
    44  H    6.411620   5.110884   4.967534   3.081384   4.938940
    45  H    4.746337   4.149902   4.319147   1.772348   4.324031
    46  H    6.076924   4.535193   4.935793   2.960231   3.747490
    47  H    5.808416   6.721534   7.675536   7.713495   6.823985
    48  H    8.817968   8.095944   8.925697   6.800833   7.307376
                   26         27         28         29         30
    26  C    0.000000
    27  H    1.092855   0.000000
    28  C    2.500889   2.733343   0.000000
    29  O    2.896763   2.707905   1.190000   0.000000
    30  N    3.666697   4.017088   1.365520   2.227562   0.000000
    31  H    4.436743   4.597711   1.993857   2.398957   1.007694
    32  H    3.857704   4.364688   2.044009   3.088854   1.005874
    33  C    5.502448   5.166266   6.928945   6.422941   8.233024
    34  C    3.484688   3.512918   4.457962   4.160693   5.652611
    35  C    3.438498   3.575196   3.624204   3.329488   4.675545
    36  C    4.800414   5.198494   3.694328   3.702140   4.012881
    37  C    3.875079   4.366302   3.656897   3.754026   4.352899
    38  O    3.653629   3.909975   5.129474   5.078168   6.283155
    39  S    4.390991   3.962242   5.353035   4.715512   6.639781
    40  H    5.920966   5.760624   7.271243   6.848097   8.511179
    41  H    5.152921   4.844274   6.918200   6.533453   8.246030
    42  H    5.382787   5.932152   4.194893   4.440904   4.217556
    43  H    4.443575   4.733591   2.877634   2.804665   3.131110
    44  H    5.606180   5.866941   4.538596   4.308520   4.905688
    45  H    4.685325   5.216439   4.739505   4.848876   5.395896
    46  H    3.814201   3.702411   3.508763   2.888779   4.541702
    47  H    5.862428   6.260608   8.241692   8.752809   9.115037
    48  H    6.375683   5.910277   7.714381   7.092807   9.029478
                   31         32         33         34         35
    31  H    0.000000
    32  H    1.716969   0.000000
    33  C    8.728942   8.824866   0.000000
    34  C    6.230733   6.235710   2.844551   0.000000
    35  C    5.193637   5.344185   4.063636   1.336876   0.000000
    36  C    4.389875   4.676927   6.514060   3.830386   2.546563
    37  C    4.969273   4.893477   5.344511   2.571364   1.529816
    38  O    6.998304   6.698632   2.921905   1.318930   2.375631
    39  S    7.042108   7.327903   1.828970   1.786863   2.665377
    40  H    9.050933   9.087470   1.097877   2.878661   4.054998
    41  H    8.814764   8.739041   1.097310   3.108135   4.417766
    42  H    4.632080   4.716611   7.420417   4.700609   3.489566
    43  H    3.382726   3.919060   6.762107   4.083015   2.755424
    44  H    5.140713   5.651066   6.445748   4.028543   2.811693
    45  H    6.030761   5.869348   5.314829   2.813272   2.150508
    46  H    4.860677   5.355531   4.354439   2.056479   1.088847
    47  H   10.000171   8.855776   7.667009   7.340778   8.125573
    48  H    9.449284   9.669189   1.090000   3.802475   4.925329
                   36         37         38         39         40
    36  C    0.000000
    37  C    1.555307   0.000000
    38  O    4.563048   3.073052   0.000000
    39  S    5.105317   4.146443   2.655437   0.000000
    40  H    6.331471   5.128307   2.745464   2.398448   0.000000
    41  H    6.932280   5.635325   2.853246   2.398461   1.803077
    42  H    1.096435   2.181920   5.237567   6.107991   7.155566
    43  H    1.095362   2.178434   4.955331   5.172996   6.752300
    44  H    1.096680   2.186425   4.880835   5.063359   6.201029
    45  H    2.193106   1.106726   3.009989   4.426196   4.876944
    46  H    2.627618   2.240299   3.300303   2.676366   4.496668
    47  H    9.813957   8.421035   6.388497   8.005664   7.922859
    48  H    7.329028   6.271016   4.005810   2.433811   1.802085
                   41         42         43         44         45
    41  H    0.000000
    42  H    7.791116   0.000000
    43  H    7.135845   1.797783   0.000000
    44  H    7.022901   1.787678   1.781470   0.000000
    45  H    5.650981   2.537698   3.091370   2.507397   0.000000
    46  H    4.832273   3.704164   2.532504   2.680065   2.973980
    47  H    6.660847  10.148984   9.870418  10.577175   8.574823
    48  H    1.793111   8.279767   7.531370   7.158606   6.257480
                   46         47         48
    46  H    0.000000
    47  H    8.902713   0.000000
    48  H    5.042221   8.432987   0.000000
 Symmetry turned off by external request.
 Stoichiometry    C16H24N2O5S
 Framework group  C1[X(C16H24N2O5S)]
 Deg. of freedom   138
 Full point group                 C1      NOp   1
 Rotational constants (GHZ):           0.2865106           0.1714045           0.1268697
 Leave Link  202 at Wed Mar  8 15:23:32 2023, MaxMem=  2684354560 cpu:               0.1 elap:               0.0
 (Enter /opt/gaussian/g16/l301.exe)
 Standard basis: def2TZVP (5D, 7F)
 Ernie: Thresh=  0.10000D-02 Tol=  0.10000D-05 Strict=F.
   894 basis functions,  1434 primitive gaussians,  1014 cartesian basis functions
    95 alpha electrons       95 beta electrons
       nuclear repulsion energy      2436.1151227292 Hartrees.
 IExCor= 4336 DFT=T Ex+Corr=M062X ExCW=0 ScaHFX=  0.540000
 ScaDFX=  1.000000  1.000000  1.000000  1.000000 ScalE2=  1.000000  1.000000
 IRadAn=      5 IRanWt=     -1 IRanGd=            0 ICorTp=0 IEmpDi=131
 NAtoms=   48 NActive=   48 NUniq=   48 SFac= 1.00D+00 NAtFMM=   60 NAOKFM=F Big=F
 Integral buffers will be    131072 words long.
 Raffenetti 2 integral format.
 Two-electron integral symmetry is turned off.
 R6Disp:  Grimme-D3 Dispersion energy=       -0.0042123060 Hartrees.
 Nuclear repulsion after empirical dispersion term =     2436.1109104232 Hartrees.
 Leave Link  301 at Wed Mar  8 15:23:32 2023, MaxMem=  2684354560 cpu:               0.9 elap:               0.1
 (Enter /opt/gaussian/g16/l302.exe)
 NPDir=0 NMtPBC=     1 NCelOv=     1 NCel=       1 NClECP=     1 NCelD=      1
         NCelK=      1 NCelE2=     1 NClLst=     1 CellRange=     0.0.
 One-electron integrals computed using PRISM.
   1 Symmetry operations used in ECPInt.
 ECPInt:  NShTT=   65703 NPrTT=  200010 LenC2=   56100 LenP2D=  118678.
 LDataN:  DoStor=T MaxTD1= 6 Len=  172
 NBasis=   894 RedAO= T EigKep=  2.37D-05  NBF=   894
 NBsUse=   894 1.00D-06 EigRej= -1.00D+00 NBFU=   894
 Precomputing XC quadrature grid using
 IXCGrd= 4 IRadAn=           5 IRanWt=          -1 IRanGd=           0 AccXCQ= 0.00D+00.
 Generated NRdTot=       0 NPtTot=           0 NUsed=           0 NTot=          32
 NSgBfM=   997   997   997   997   997 MxSgAt=    48 MxSgA2=    48.
 Leave Link  302 at Wed Mar  8 15:23:35 2023, MaxMem=  2684354560 cpu:              39.0 elap:               2.5
 (Enter /opt/gaussian/g16/l303.exe)
 DipDrv:  MaxL=1.
 Leave Link  303 at Wed Mar  8 15:23:35 2023, MaxMem=  2684354560 cpu:               5.1 elap:               0.3
 (Enter /opt/gaussian/g16/l401.exe)
 ExpMin= 9.52D-02 ExpMax= 6.07D+04 ExpMxC= 2.07D+03 IAcc=3 IRadAn=         5 AccDes= 0.00D+00
 Harris functional with IExCor= 1009 and IRadAn=       5 diagonalized for initial guess.
 HarFok:  IExCor= 1009 AccDes= 0.00D+00 IRadAn=         5 IDoV= 1 UseB2=F ITyADJ=14
 ICtDFT=  3500011 ScaDFX=  1.000000  1.000000  1.000000  1.000000
 FoFCou: FMM=F IPFlag=           0 FMFlag=      100000 FMFlg1=           0
         NFxFlg=           0 DoJE=T BraDBF=F KetDBF=T FulRan=T
         wScrn=  0.000000 ICntrl=       500 IOpCl=  0 I1Cent=   200000004 NGrid=           0
         NMat0=    1 NMatS0=      1 NMatT0=    0 NMatD0=    1 NMtDS0=    0 NMtDT0=    0
 Symmetry not used in FoFCou.
 Harris En= -1507.21650757738    
 JPrj=0 DoOrth=F DoCkMO=F.
 Leave Link  401 at Wed Mar  8 15:23:45 2023, MaxMem=  2684354560 cpu:             148.5 elap:               9.3
 (Enter /opt/gaussian/g16/l502.exe)
 Two-electron integral symmetry not used.
 Closed shell SCF:
 Using DIIS extrapolation, IDIIS=  1040.
 NGot=  2684354560 LenX=  2682275214 LenY=  2681246004
 Requested convergence on RMS density matrix=1.00D-08 within 128 cycles.
 Requested convergence on MAX density matrix=1.00D-06.
 Requested convergence on             energy=1.00D-06.
 No special actions if energy rises.
 Fock matrices will be formed incrementally for  20 cycles.
 Integral accuracy reduced to 1.0D-05 until final iterations.

 Cycle   1  Pass 0  IDiag  1:
 FoFJK:  IHMeth= 1 ICntrl=       0 DoSepK=F KAlg= 0 I1Cent=           0 FoldK=F
 IRaf= 780000000 NMat=       1 IRICut=       1 DoRegI=T DoRafI=F ISym2E= 0 IDoP0=0 IntGTp=1.
 FoFCou: FMM=F IPFlag=           0 FMFlag=      100000 FMFlg1=           0
         NFxFlg=           0 DoJE=F BraDBF=F KetDBF=F FulRan=T
         wScrn=  0.000000 ICntrl=         0 IOpCl=  0 I1Cent=           0 NGrid=           0
         NMat0=    1 NMatS0=      1 NMatT0=    0 NMatD0=    1 NMtDS0=    0 NMtDT0=    0
 Symmetry not used in FoFCou.
 E= -1507.09765531967    
 DIIS: error= 1.58D-02 at cycle   1 NSaved=   1.
 NSaved= 1 IEnMin= 1 EnMin= -1507.09765531967     IErMin= 1 ErrMin= 1.58D-02
 ErrMax= 1.58D-02  0.00D+00 EMaxC= 1.00D-01 BMatC= 9.99D-01 BMatP= 9.99D-01
 IDIUse=3 WtCom= 8.42D-01 WtEn= 1.58D-01
 Coeff-Com:  0.100D+01
 Coeff-En:   0.100D+01
 Coeff:      0.100D+01
 Gap=     0.096 Goal=   None    Shift=    0.000
 GapD=    0.096 DampG=0.500 DampE=0.500 DampFc=0.2500 IDamp=-1.
 Damping current iteration by 2.50D-01
 RMSDP=4.29D-03 MaxDP=9.09D-01              OVMax= 8.46D-01

 Cycle   2  Pass 0  IDiag  1:
 RMSU=  1.07D-03    CP:  1.01D+00
 E= -1507.33201523182     Delta-E=       -0.234359912149 Rises=F Damp=T
 DIIS: error= 9.70D-03 at cycle   2 NSaved=   2.
 NSaved= 2 IEnMin= 2 EnMin= -1507.33201523182     IErMin= 2 ErrMin= 9.70D-03
 ErrMax= 9.70D-03  0.00D+00 EMaxC= 1.00D-01 BMatC= 3.02D-01 BMatP= 9.99D-01
 IDIUse=3 WtCom= 9.03D-01 WtEn= 9.70D-02
 Coeff-Com: -0.776D+00 0.178D+01
 Coeff-En:   0.000D+00 0.100D+01
 Coeff:     -0.700D+00 0.170D+01
 Gap=     0.129 Goal=   None    Shift=    0.000
 RMSDP=1.21D-03 MaxDP=5.04D-02 DE=-2.34D-01 OVMax= 7.71D-01

 Cycle   3  Pass 0  IDiag  1:
 RMSU=  1.21D-03    CP:  9.96D-01  1.08D+00
 E= -1507.65564545734     Delta-E=       -0.323630225515 Rises=F Damp=F
 DIIS: error= 1.05D-02 at cycle   3 NSaved=   3.
 NSaved= 3 IEnMin= 3 EnMin= -1507.65564545734     IErMin= 2 ErrMin= 9.70D-03
 ErrMax= 1.05D-02  0.00D+00 EMaxC= 1.00D-01 BMatC= 1.78D-01 BMatP= 3.02D-01
 IDIUse=3 WtCom= 8.95D-01 WtEn= 1.05D-01
 Coeff-Com: -0.556D+00 0.107D+01 0.488D+00
 Coeff-En:   0.000D+00 0.000D+00 0.100D+01
 Coeff:     -0.498D+00 0.956D+00 0.541D+00
 Gap=     0.090 Goal=   None    Shift=    0.000
 RMSDP=7.57D-04 MaxDP=4.61D-02 DE=-3.24D-01 OVMax= 1.94D-01

 Cycle   4  Pass 0  IDiag  1:
 RMSU=  6.52D-04    CP:  9.98D-01  1.29D+00  7.37D-01
 E= -1507.84159882388     Delta-E=       -0.185953366541 Rises=F Damp=F
 DIIS: error= 1.70D-03 at cycle   4 NSaved=   4.
 NSaved= 4 IEnMin= 4 EnMin= -1507.84159882388     IErMin= 4 ErrMin= 1.70D-03
 ErrMax= 1.70D-03  0.00D+00 EMaxC= 1.00D-01 BMatC= 7.96D-03 BMatP= 1.78D-01
 IDIUse=3 WtCom= 9.83D-01 WtEn= 1.70D-02
 Coeff-Com: -0.200D+00 0.314D+00 0.169D+00 0.717D+00
 Coeff-En:   0.000D+00 0.000D+00 0.000D+00 0.100D+01
 Coeff:     -0.196D+00 0.308D+00 0.166D+00 0.721D+00
 Gap=     0.100 Goal=   None    Shift=    0.000
 RMSDP=2.31D-04 MaxDP=2.42D-02 DE=-1.86D-01 OVMax= 1.68D-02

 Cycle   5  Pass 0  IDiag  1:
 RMSU=  1.99D-04    CP:  1.00D+00  1.39D+00  7.47D-01  1.05D+00
 E= -1507.84718128318     Delta-E=       -0.005582459307 Rises=F Damp=F
 DIIS: error= 8.10D-04 at cycle   5 NSaved=   5.
 NSaved= 5 IEnMin= 5 EnMin= -1507.84718128318     IErMin= 5 ErrMin= 8.10D-04
 ErrMax= 8.10D-04  0.00D+00 EMaxC= 1.00D-01 BMatC= 1.95D-03 BMatP= 7.96D-03
 IDIUse=3 WtCom= 9.92D-01 WtEn= 8.10D-03
 Coeff-Com: -0.678D-01 0.936D-01 0.135D-01 0.321D+00 0.640D+00
 Coeff-En:   0.000D+00 0.000D+00 0.000D+00 0.244D-01 0.976D+00
 Coeff:     -0.672D-01 0.929D-01 0.134D-01 0.318D+00 0.643D+00
 Gap=     0.106 Goal=   None    Shift=    0.000
 RMSDP=9.46D-05 MaxDP=1.10D-02 DE=-5.58D-03 OVMax= 8.44D-03

 Cycle   6  Pass 0  IDiag  1:
 RMSU=  7.41D-05    CP:  1.00D+00  1.41D+00  7.24D-01  1.12D+00  1.00D+00
 E= -1507.84890748916     Delta-E=       -0.001726205979 Rises=F Damp=F
 DIIS: error= 2.14D-04 at cycle   6 NSaved=   6.
 NSaved= 6 IEnMin= 6 EnMin= -1507.84890748916     IErMin= 6 ErrMin= 2.14D-04
 ErrMax= 2.14D-04  0.00D+00 EMaxC= 1.00D-01 BMatC= 1.50D-04 BMatP= 1.95D-03
 IDIUse=3 WtCom= 9.98D-01 WtEn= 2.14D-03
 Coeff-Com: -0.763D-02 0.857D-02-0.212D-01 0.193D-01 0.237D+00 0.764D+00
 Coeff-En:   0.000D+00 0.000D+00 0.000D+00 0.000D+00 0.000D+00 0.100D+01
 Coeff:     -0.761D-02 0.855D-02-0.211D-01 0.193D-01 0.236D+00 0.765D+00
 Gap=     0.108 Goal=   None    Shift=    0.000
 RMSDP=4.23D-05 MaxDP=3.64D-03 DE=-1.73D-03 OVMax= 5.10D-03

 Cycle   7  Pass 0  IDiag  1:
 RMSU=  2.74D-05    CP:  1.00D+00  1.42D+00  7.23D-01  1.14D+00  1.13D+00
                    CP:  1.05D+00
 E= -1507.84907392781     Delta-E=       -0.000166438648 Rises=F Damp=F
 DIIS: error= 7.12D-05 at cycle   7 NSaved=   7.
 NSaved= 7 IEnMin= 7 EnMin= -1507.84907392781     IErMin= 7 ErrMin= 7.12D-05
 ErrMax= 7.12D-05  0.00D+00 EMaxC= 1.00D-01 BMatC= 1.13D-05 BMatP= 1.50D-04
 IDIUse=1 WtCom= 1.00D+00 WtEn= 0.00D+00
 Coeff-Com:  0.959D-03-0.147D-02-0.805D-02-0.192D-01 0.285D-01 0.269D+00
 Coeff-Com:  0.730D+00
 Coeff:      0.959D-03-0.147D-02-0.805D-02-0.192D-01 0.285D-01 0.269D+00
 Coeff:      0.730D+00
 Gap=     0.109 Goal=   None    Shift=    0.000
 RMSDP=1.60D-05 MaxDP=1.84D-03 DE=-1.66D-04 OVMax= 1.50D-03

 Cycle   8  Pass 0  IDiag  1:
 RMSU=  1.30D-05    CP:  1.00D+00  1.42D+00  7.22D-01  1.15D+00  1.15D+00
                    CP:  1.13D+00  1.20D+00
 E= -1507.84908776305     Delta-E=       -0.000013835236 Rises=F Damp=F
 DIIS: error= 2.83D-05 at cycle   8 NSaved=   8.
 NSaved= 8 IEnMin= 8 EnMin= -1507.84908776305     IErMin= 8 ErrMin= 2.83D-05
 ErrMax= 2.83D-05  0.00D+00 EMaxC= 1.00D-01 BMatC= 2.04D-06 BMatP= 1.13D-05
 IDIUse=1 WtCom= 1.00D+00 WtEn= 0.00D+00
 Coeff-Com:  0.109D-02-0.144D-02-0.185D-02-0.985D-02-0.102D-01 0.326D-01
 Coeff-Com:  0.307D+00 0.683D+00
 Coeff:      0.109D-02-0.144D-02-0.185D-02-0.985D-02-0.102D-01 0.326D-01
 Coeff:      0.307D+00 0.683D+00
 Gap=     0.109 Goal=   None    Shift=    0.000
 RMSDP=1.57D-05 MaxDP=1.50D-03 DE=-1.38D-05 OVMax= 8.74D-04

 Cycle   9  Pass 0  IDiag  1:
 RMSU=  9.32D-06    CP:  1.00D+00  1.42D+00  7.22D-01  1.15D+00  1.16D+00
                    CP:  1.18D+00  1.45D+00  1.71D+00
 E= -1507.84909351171     Delta-E=       -0.000005748659 Rises=F Damp=F
 DIIS: error= 2.25D-05 at cycle   9 NSaved=   9.
 NSaved= 9 IEnMin= 9 EnMin= -1507.84909351171     IErMin= 9 ErrMin= 2.25D-05
 ErrMax= 2.25D-05  0.00D+00 EMaxC= 1.00D-01 BMatC= 5.07D-07 BMatP= 2.04D-06
 IDIUse=1 WtCom= 1.00D+00 WtEn= 0.00D+00
 Coeff-Com:  0.266D-03-0.335D-03-0.280D-03-0.247D-02-0.725D-02-0.153D-01
 Coeff-Com:  0.629D-01 0.312D+00 0.650D+00
 Coeff:      0.266D-03-0.335D-03-0.280D-03-0.247D-02-0.725D-02-0.153D-01
 Coeff:      0.629D-01 0.312D+00 0.650D+00
 Gap=     0.108 Goal=   None    Shift=    0.000
 RMSDP=2.21D-05 MaxDP=2.51D-03 DE=-5.75D-06 OVMax= 5.74D-04

 Cycle  10  Pass 0  IDiag  1:
 RMSU=  5.98D-06    CP:  1.00D+00  1.42D+00  7.23D-01  1.15D+00  1.17D+00
                    CP:  1.22D+00  1.71D+00  2.85D+00  2.34D+00
 E= -1507.84909986064     Delta-E=       -0.000006348933 Rises=F Damp=F
 DIIS: error= 3.46D-05 at cycle  10 NSaved=  10.
 NSaved=10 IEnMin=10 EnMin= -1507.84909986064     IErMin= 9 ErrMin= 2.25D-05
 ErrMax= 3.46D-05  0.00D+00 EMaxC= 1.00D-01 BMatC= 6.95D-07 BMatP= 5.07D-07
 IDIUse=1 WtCom= 1.00D+00 WtEn= 0.00D+00
 Coeff-Com:  0.267D-03-0.320D-03-0.104D-03-0.251D-02-0.930D-02-0.236D-01
 Coeff-Com:  0.650D-01 0.386D+00 0.889D+00-0.304D+00
 Coeff:      0.267D-03-0.320D-03-0.104D-03-0.251D-02-0.930D-02-0.236D-01
 Coeff:      0.650D-01 0.386D+00 0.889D+00-0.304D+00
 Gap=     0.108 Goal=   None    Shift=    0.000
 RMSDP=1.41D-05 MaxDP=1.50D-03 DE=-6.35D-06 OVMax= 8.14D-05

 Cycle  11  Pass 0  IDiag  1:
 RMSU=  2.09D-06    CP:  1.00D+00  1.42D+00  7.23D-01  1.15D+00  1.16D+00
                    CP:  1.19D+00  1.56D+00  2.16D+00  1.46D+00  2.69D-01
 E= -1507.84908816739     Delta-E=        0.000011693251 Rises=F Damp=F
 DIIS: error= 2.80D-05 at cycle  11 NSaved=  11.
 NSaved=11 IEnMin=10 EnMin= -1507.84909986064     IErMin= 9 ErrMin= 2.25D-05
 ErrMax= 2.80D-05  0.00D+00 EMaxC= 1.00D-01 BMatC= 4.73D-07 BMatP= 5.07D-07
 IDIUse=1 WtCom= 1.00D+00 WtEn= 0.00D+00
 Coeff-Com:  0.632D-04-0.897D-04-0.343D-04-0.309D-03-0.549D-02-0.278D-01
 Coeff-Com: -0.178D-01 0.167D+00 0.833D+00-0.171D+01 0.176D+01
 Coeff:      0.632D-04-0.897D-04-0.343D-04-0.309D-03-0.549D-02-0.278D-01
 Coeff:     -0.178D-01 0.167D+00 0.833D+00-0.171D+01 0.176D+01
 Gap=     0.108 Goal=   None    Shift=    0.000
 RMSDP=2.69D-05 MaxDP=2.56D-03 DE= 1.17D-05 OVMax= 1.70D-04

 Cycle  12  Pass 0  IDiag  1:
 RMSU=  9.95D-06    CP:  1.00D+00  1.42D+00  7.21D-01  1.15D+00  1.15D+00
                    CP:  1.15D+00  1.26D+00  1.12D+00  3.17D-01 -1.87D+00
                    CP:  3.00D+00
 E= -1507.84906146199     Delta-E=        0.000026705395 Rises=F Damp=F
 DIIS: error= 1.97D-05 at cycle  12 NSaved=  12.
 NSaved=12 IEnMin=10 EnMin= -1507.84909986064     IErMin=12 ErrMin= 1.97D-05
 ErrMax= 1.97D-05  0.00D+00 EMaxC= 1.00D-01 BMatC= 1.91D-07 BMatP= 4.73D-07
 IDIUse=1 WtCom= 1.00D+00 WtEn= 0.00D+00
 Coeff-Com:  0.650D-04-0.933D-04-0.846D-04-0.365D-03-0.461D-02-0.229D-01
 Coeff-Com: -0.146D-01 0.134D+00 0.681D+00-0.140D+01 0.141D+01 0.221D+00
 Coeff:      0.650D-04-0.933D-04-0.846D-04-0.365D-03-0.461D-02-0.229D-01
 Coeff:     -0.146D-01 0.134D+00 0.681D+00-0.140D+01 0.141D+01 0.221D+00
 Gap=     0.108 Goal=   None    Shift=    0.000
 RMSDP=4.69D-06 MaxDP=5.13D-04 DE= 2.67D-05 OVMax= 7.58D-05

 Initial convergence to 1.0D-05 achieved.  Increase integral accuracy.
 Cycle  13  Pass 1  IDiag  1:
 E= -1507.84893655400     Delta-E=        0.000124907993 Rises=F Damp=F
 DIIS: error= 2.61D-04 at cycle   1 NSaved=   1.
 NSaved= 1 IEnMin= 1 EnMin= -1507.84893655400     IErMin= 1 ErrMin= 2.61D-04
 ErrMax= 2.61D-04  0.00D+00 EMaxC= 1.00D-01 BMatC= 8.04D-05 BMatP= 8.04D-05
 IDIUse=3 WtCom= 9.97D-01 WtEn= 2.61D-03
 Coeff-Com:  0.100D+01
 Coeff-En:   0.100D+01
 Coeff:      0.100D+01
 Gap=     0.108 Goal=   None    Shift=    0.000
 RMSDP=4.69D-06 MaxDP=5.13D-04 DE= 1.25D-04 OVMax= 9.42D-04

 Cycle  14  Pass 1  IDiag  1:
 RMSU=  4.55D-04    CP:  9.94D-01
 E= -1507.84898861383     Delta-E=       -0.000052059826 Rises=F Damp=F
 DIIS: error= 6.39D-06 at cycle   2 NSaved=   2.
 NSaved= 2 IEnMin= 2 EnMin= -1507.84898861383     IErMin= 2 ErrMin= 6.39D-06
 ErrMax= 6.39D-06  0.00D+00 EMaxC= 1.00D-01 BMatC= 7.50D-08 BMatP= 8.04D-05
 IDIUse=1 WtCom= 1.00D+00 WtEn= 0.00D+00
 Coeff-Com: -0.166D-01 0.102D+01
 Coeff:     -0.166D-01 0.102D+01
 Gap=     0.108 Goal=   None    Shift=    0.000
 RMSDP=1.66D-05 MaxDP=1.09D-03 DE=-5.21D-05 OVMax= 3.87D-04

 Cycle  15  Pass 1  IDiag  1:
 RMSU=  5.48D-06    CP:  9.94D-01  1.03D+00
 E= -1507.84898867590     Delta-E=       -0.000000062070 Rises=F Damp=F
 DIIS: error= 5.89D-06 at cycle   3 NSaved=   3.
 NSaved= 3 IEnMin= 3 EnMin= -1507.84898867590     IErMin= 3 ErrMin= 5.89D-06
 ErrMax= 5.89D-06  0.00D+00 EMaxC= 1.00D-01 BMatC= 7.37D-08 BMatP= 7.50D-08
 IDIUse=1 WtCom= 1.00D+00 WtEn= 0.00D+00
 Coeff-Com: -0.970D-02 0.558D+00 0.452D+00
 Coeff:     -0.970D-02 0.558D+00 0.452D+00
 Gap=     0.108 Goal=   None    Shift=    0.000
 RMSDP=5.93D-07 MaxDP=8.14D-05 DE=-6.21D-08 OVMax= 1.18D-04

 Cycle  16  Pass 1  IDiag  1:
 RMSU=  5.17D-07    CP:  9.94D-01  1.03D+00  1.04D+00
 E= -1507.84898874193     Delta-E=       -0.000000066029 Rises=F Damp=F
 DIIS: error= 1.52D-06 at cycle   4 NSaved=   4.
 NSaved= 4 IEnMin= 4 EnMin= -1507.84898874193     IErMin= 4 ErrMin= 1.52D-06
 ErrMax= 1.52D-06  0.00D+00 EMaxC= 1.00D-01 BMatC= 1.85D-09 BMatP= 7.37D-08
 IDIUse=1 WtCom= 1.00D+00 WtEn= 0.00D+00
 Coeff-Com:  0.816D-04-0.164D-01 0.101D+00 0.915D+00
 Coeff:      0.816D-04-0.164D-01 0.101D+00 0.915D+00
 Gap=     0.108 Goal=   None    Shift=    0.000
 RMSDP=4.24D-07 MaxDP=2.40D-05 DE=-6.60D-08 OVMax= 1.04D-04

 Cycle  17  Pass 1  IDiag  1:
 RMSU=  2.44D-07    CP:  9.94D-01  1.04D+00  1.08D+00  1.01D+00
 E= -1507.84898874746     Delta-E=       -0.000000005531 Rises=F Damp=F
 DIIS: error= 4.60D-07 at cycle   5 NSaved=   5.
 NSaved= 5 IEnMin= 5 EnMin= -1507.84898874746     IErMin= 5 ErrMin= 4.60D-07
 ErrMax= 4.60D-07  0.00D+00 EMaxC= 1.00D-01 BMatC= 6.51D-10 BMatP= 1.85D-09
 IDIUse=1 WtCom= 1.00D+00 WtEn= 0.00D+00
 Coeff-Com:  0.656D-03-0.424D-01-0.138D-01 0.390D+00 0.666D+00
 Coeff:      0.656D-03-0.424D-01-0.138D-01 0.390D+00 0.666D+00
 Gap=     0.108 Goal=   None    Shift=    0.000
 RMSDP=9.75D-08 MaxDP=7.19D-06 DE=-5.53D-09 OVMax= 3.52D-05

 Cycle  18  Pass 1  IDiag  1:
 RMSU=  5.26D-08    CP:  9.94D-01  1.04D+00  1.08D+00  1.08D+00  1.23D+00
 E= -1507.84898874870     Delta-E=       -0.000000001239 Rises=F Damp=F
 DIIS: error= 3.37D-07 at cycle   6 NSaved=   6.
 NSaved= 6 IEnMin= 6 EnMin= -1507.84898874870     IErMin= 6 ErrMin= 3.37D-07
 ErrMax= 3.37D-07  0.00D+00 EMaxC= 1.00D-01 BMatC= 1.47D-10 BMatP= 6.51D-10
 IDIUse=1 WtCom= 1.00D+00 WtEn= 0.00D+00
 Coeff-Com:  0.178D-03-0.882D-02-0.510D-01-0.712D-01 0.198D+00 0.933D+00
 Coeff:      0.178D-03-0.882D-02-0.510D-01-0.712D-01 0.198D+00 0.933D+00
 Gap=     0.108 Goal=   None    Shift=    0.000
 RMSDP=8.83D-08 MaxDP=7.00D-06 DE=-1.24D-09 OVMax= 3.58D-05

 Cycle  19  Pass 1  IDiag  1:
 RMSU=  3.82D-08    CP:  9.94D-01  1.04D+00  1.09D+00  1.15D+00  1.48D+00
                    CP:  1.64D+00
 E= -1507.84898874928     Delta-E=       -0.000000000588 Rises=F Damp=F
 DIIS: error= 1.35D-07 at cycle   7 NSaved=   7.
 NSaved= 7 IEnMin= 7 EnMin= -1507.84898874928     IErMin= 7 ErrMin= 1.35D-07
 ErrMax= 1.35D-07  0.00D+00 EMaxC= 1.00D-01 BMatC= 4.15D-11 BMatP= 1.47D-10
 IDIUse=1 WtCom= 1.00D+00 WtEn= 0.00D+00
 Coeff-Com: -0.987D-04 0.779D-02-0.293D-01-0.133D+00-0.892D-01 0.511D+00
 Coeff-Com:  0.734D+00
 Coeff:     -0.987D-04 0.779D-02-0.293D-01-0.133D+00-0.892D-01 0.511D+00
 Coeff:      0.734D+00
 Gap=     0.108 Goal=   None    Shift=    0.000
 RMSDP=4.27D-08 MaxDP=3.27D-06 DE=-5.88D-10 OVMax= 1.91D-05

 Cycle  20  Pass 1  IDiag  1:
 RMSU=  1.47D-08    CP:  9.94D-01  1.04D+00  1.09D+00  1.18D+00  1.58D+00
                    CP:  2.08D+00  1.27D+00
 E= -1507.84898874939     Delta-E=       -0.000000000105 Rises=F Damp=F
 DIIS: error= 4.51D-08 at cycle   8 NSaved=   8.
 NSaved= 8 IEnMin= 8 EnMin= -1507.84898874939     IErMin= 8 ErrMin= 4.51D-08
 ErrMax= 4.51D-08  0.00D+00 EMaxC= 1.00D-01 BMatC= 4.56D-12 BMatP= 4.15D-11
 IDIUse=1 WtCom= 1.00D+00 WtEn= 0.00D+00
 Coeff-Com: -0.658D-04 0.457D-02-0.803D-02-0.495D-01-0.687D-01 0.106D+00
 Coeff-Com:  0.323D+00 0.693D+00
 Coeff:     -0.658D-04 0.457D-02-0.803D-02-0.495D-01-0.687D-01 0.106D+00
 Coeff:      0.323D+00 0.693D+00
 Gap=     0.108 Goal=   None    Shift=    0.000
 RMSDP=1.29D-08 MaxDP=1.21D-06 DE=-1.05D-10 OVMax= 5.43D-06

 Cycle  21  Pass 1  IDiag  1:
 RMSU=  4.26D-09    CP:  9.94D-01  1.04D+00  1.09D+00  1.18D+00  1.61D+00
                    CP:  2.22D+00  1.42D+00  1.14D+00
 E= -1507.84898874940     Delta-E=       -0.000000000012 Rises=F Damp=F
 DIIS: error= 2.63D-08 at cycle   9 NSaved=   9.
 NSaved= 9 IEnMin= 9 EnMin= -1507.84898874940     IErMin= 9 ErrMin= 2.63D-08
 ErrMax= 2.63D-08  0.00D+00 EMaxC= 1.00D-01 BMatC= 5.96D-13 BMatP= 4.56D-12
 IDIUse=1 WtCom= 1.00D+00 WtEn= 0.00D+00
 Coeff-Com: -0.685D-05 0.256D-03 0.270D-02 0.870D-02-0.105D-01-0.682D-01
 Coeff-Com: -0.205D-01 0.277D+00 0.811D+00
 Coeff:     -0.685D-05 0.256D-03 0.270D-02 0.870D-02-0.105D-01-0.682D-01
 Coeff:     -0.205D-01 0.277D+00 0.811D+00
 Gap=     0.108 Goal=   None    Shift=    0.000
 RMSDP=5.79D-09 MaxDP=4.84D-07 DE=-1.23D-11 OVMax= 2.38D-06

 SCF Done:  E(RM062X) =  -1507.84898875     A.U. after   21 cycles
            NFock= 21  Conv=0.58D-08     -V/T= 2.0042
 KE= 1.501505734415D+03 PE=-8.410784447854D+03 EE= 2.965318814267D+03
 Leave Link  502 at Wed Mar  8 15:45:18 2023, MaxMem=  2684354560 cpu:           20656.2 elap:            1293.2
 (Enter /opt/gaussian/g16/l601.exe)
 Copying SCF densities to generalized density rwf, IOpCl= 0 IROHF=0.

 **********************************************************************

            Population analysis using the SCF density.

 **********************************************************************

 Alpha  occ. eigenvalues --  -89.84381 -19.65625 -19.62907 -19.62492 -19.56392
 Alpha  occ. eigenvalues --  -19.53771 -14.88803 -14.79492 -10.67893 -10.65720
 Alpha  occ. eigenvalues --  -10.65549 -10.64953 -10.62322 -10.61666 -10.61626
 Alpha  occ. eigenvalues --  -10.60919 -10.60724 -10.60317 -10.56191 -10.55359
 Alpha  occ. eigenvalues --  -10.51203 -10.50964 -10.50542 -10.47196  -8.20267
 Alpha  occ. eigenvalues --   -6.12232  -6.12025  -6.11752  -1.21014  -1.20734
 Alpha  occ. eigenvalues --   -1.16101  -1.14583  -1.09901  -1.05473  -1.04795
 Alpha  occ. eigenvalues --   -0.98330  -0.94085  -0.88797  -0.86144  -0.85007
 Alpha  occ. eigenvalues --   -0.82415  -0.81603  -0.81227  -0.77060  -0.76749
 Alpha  occ. eigenvalues --   -0.72621  -0.69536  -0.69164  -0.68630  -0.66882
 Alpha  occ. eigenvalues --   -0.65144  -0.64094  -0.63280  -0.62228  -0.61148
 Alpha  occ. eigenvalues --   -0.59488  -0.58223  -0.57560  -0.55933  -0.55708
 Alpha  occ. eigenvalues --   -0.54509  -0.54346  -0.52878  -0.51704  -0.51108
 Alpha  occ. eigenvalues --   -0.49955  -0.49603  -0.49302  -0.48721  -0.48426
 Alpha  occ. eigenvalues --   -0.48066  -0.47063  -0.46748  -0.45749  -0.44976
 Alpha  occ. eigenvalues --   -0.43948  -0.43298  -0.42141  -0.41453  -0.41197
 Alpha  occ. eigenvalues --   -0.40134  -0.38775  -0.38216  -0.38125  -0.37629
 Alpha  occ. eigenvalues --   -0.37008  -0.36499  -0.35802  -0.35302  -0.35004
 Alpha  occ. eigenvalues --   -0.32297  -0.31122  -0.26938  -0.25480  -0.19104
 Alpha virt. eigenvalues --   -0.08268  -0.05146   0.03143   0.04002   0.04588
 Alpha virt. eigenvalues --    0.05354   0.06581   0.07011   0.08118   0.08640
 Alpha virt. eigenvalues --    0.09276   0.09684   0.10218   0.10711   0.11127
 Alpha virt. eigenvalues --    0.11320   0.12099   0.12515   0.12924   0.13478
 Alpha virt. eigenvalues --    0.14085   0.14450   0.14947   0.15088   0.15450
 Alpha virt. eigenvalues --    0.15708   0.15957   0.16521   0.16877   0.17876
 Alpha virt. eigenvalues --    0.17941   0.18293   0.18757   0.19076   0.19433
 Alpha virt. eigenvalues --    0.20020   0.20390   0.20547   0.21208   0.21540
 Alpha virt. eigenvalues --    0.22402   0.22605   0.23417   0.23636   0.23914
 Alpha virt. eigenvalues --    0.24274   0.25238   0.25352   0.25542   0.25964
 Alpha virt. eigenvalues --    0.27060   0.27481   0.27844   0.28399   0.28949
 Alpha virt. eigenvalues --    0.29272   0.29485   0.29996   0.30597   0.30676
 Alpha virt. eigenvalues --    0.31197   0.31405   0.31993   0.32769   0.33366
 Alpha virt. eigenvalues --    0.33640   0.34074   0.34287   0.34817   0.35094
 Alpha virt. eigenvalues --    0.35887   0.36559   0.37011   0.37674   0.37959
 Alpha virt. eigenvalues --    0.38391   0.38985   0.39259   0.39485   0.40196
 Alpha virt. eigenvalues --    0.40687   0.40965   0.41117   0.41674   0.41821
 Alpha virt. eigenvalues --    0.42111   0.42422   0.43076   0.43157   0.43394
 Alpha virt. eigenvalues --    0.43755   0.44681   0.44919   0.45140   0.45480
 Alpha virt. eigenvalues --    0.46052   0.46543   0.46721   0.46980   0.47222
 Alpha virt. eigenvalues --    0.47365   0.47849   0.48118   0.48595   0.48970
 Alpha virt. eigenvalues --    0.49336   0.49769   0.49796   0.50580   0.50877
 Alpha virt. eigenvalues --    0.51309   0.51690   0.52202   0.52420   0.52595
 Alpha virt. eigenvalues --    0.52740   0.52856   0.53492   0.54223   0.54811
 Alpha virt. eigenvalues --    0.54854   0.55154   0.55471   0.56306   0.56714
 Alpha virt. eigenvalues --    0.56893   0.57692   0.58139   0.58184   0.58861
 Alpha virt. eigenvalues --    0.59192   0.59704   0.59977   0.60921   0.61549
 Alpha virt. eigenvalues --    0.61730   0.62174   0.63418   0.64162   0.64656
 Alpha virt. eigenvalues --    0.65099   0.65902   0.66439   0.66663   0.67187
 Alpha virt. eigenvalues --    0.67978   0.68355   0.68885   0.69088   0.70313
 Alpha virt. eigenvalues --    0.70678   0.71206   0.72185   0.72276   0.73492
 Alpha virt. eigenvalues --    0.73675   0.74345   0.75142   0.75506   0.76068
 Alpha virt. eigenvalues --    0.77544   0.77789   0.78792   0.80126   0.80349
 Alpha virt. eigenvalues --    0.81223   0.81489   0.82606   0.83111   0.84343
 Alpha virt. eigenvalues --    0.84889   0.85018   0.85997   0.86553   0.87406
 Alpha virt. eigenvalues --    0.87989   0.88302   0.88675   0.89737   0.90637
 Alpha virt. eigenvalues --    0.91150   0.91491   0.92500   0.92796   0.93298
 Alpha virt. eigenvalues --    0.93628   0.94045   0.94665   0.95087   0.95933
 Alpha virt. eigenvalues --    0.96319   0.97321   0.97796   0.98808   0.99539
 Alpha virt. eigenvalues --    1.00158   1.00518   1.01690   1.02356   1.03166
 Alpha virt. eigenvalues --    1.03612   1.04624   1.04993   1.05268   1.06118
 Alpha virt. eigenvalues --    1.06687   1.08402   1.08756   1.09165   1.10147
 Alpha virt. eigenvalues --    1.10401   1.10910   1.11518   1.12405   1.13209
 Alpha virt. eigenvalues --    1.13436   1.13942   1.15260   1.15405   1.15812
 Alpha virt. eigenvalues --    1.16147   1.16589   1.16946   1.18188   1.19111
 Alpha virt. eigenvalues --    1.20189   1.20727   1.21449   1.21725   1.22724
 Alpha virt. eigenvalues --    1.23253   1.23808   1.24211   1.24665   1.25556
 Alpha virt. eigenvalues --    1.27104   1.27393   1.27708   1.28919   1.29717
 Alpha virt. eigenvalues --    1.30927   1.31980   1.32481   1.33346   1.33596
 Alpha virt. eigenvalues --    1.34222   1.35651   1.36931   1.37504   1.38496
 Alpha virt. eigenvalues --    1.38991   1.40226   1.41327   1.42850   1.43224
 Alpha virt. eigenvalues --    1.45285   1.45521   1.46135   1.48000   1.48447
 Alpha virt. eigenvalues --    1.49870   1.50423   1.50909   1.51688   1.52757
 Alpha virt. eigenvalues --    1.53367   1.54054   1.55518   1.55882   1.55992
 Alpha virt. eigenvalues --    1.56474   1.56696   1.57796   1.57940   1.58676
 Alpha virt. eigenvalues --    1.59103   1.60045   1.60344   1.60793   1.61124
 Alpha virt. eigenvalues --    1.61426   1.62157   1.62813   1.63235   1.63405
 Alpha virt. eigenvalues --    1.63820   1.64500   1.64985   1.65860   1.66318
 Alpha virt. eigenvalues --    1.66531   1.66963   1.67671   1.67953   1.68647
 Alpha virt. eigenvalues --    1.69726   1.69932   1.70706   1.71329   1.71775
 Alpha virt. eigenvalues --    1.72252   1.72898   1.73082   1.73794   1.74123
 Alpha virt. eigenvalues --    1.74755   1.74944   1.75850   1.76133   1.76708
 Alpha virt. eigenvalues --    1.77129   1.78594   1.79105   1.79554   1.80741
 Alpha virt. eigenvalues --    1.81248   1.82260   1.82662   1.82732   1.84641
 Alpha virt. eigenvalues --    1.85101   1.85903   1.86136   1.86366   1.87639
 Alpha virt. eigenvalues --    1.89064   1.89378   1.89971   1.90123   1.90875
 Alpha virt. eigenvalues --    1.91913   1.92272   1.92721   1.93496   1.93652
 Alpha virt. eigenvalues --    1.94788   1.95099   1.96326   1.96792   1.97703
 Alpha virt. eigenvalues --    1.98256   1.98744   1.99265   1.99886   2.00294
 Alpha virt. eigenvalues --    2.00602   2.01672   2.02670   2.03164   2.03807
 Alpha virt. eigenvalues --    2.04748   2.06451   2.06803   2.07828   2.08412
 Alpha virt. eigenvalues --    2.09114   2.09446   2.09661   2.10822   2.10890
 Alpha virt. eigenvalues --    2.12416   2.13915   2.13986   2.14577   2.14798
 Alpha virt. eigenvalues --    2.15261   2.15604   2.17720   2.18150   2.18721
 Alpha virt. eigenvalues --    2.19217   2.19546   2.19984   2.20431   2.21661
 Alpha virt. eigenvalues --    2.22206   2.22977   2.24215   2.24658   2.25076
 Alpha virt. eigenvalues --    2.25904   2.26507   2.27642   2.28238   2.28426
 Alpha virt. eigenvalues --    2.29466   2.29653   2.31416   2.32167   2.32650
 Alpha virt. eigenvalues --    2.33006   2.33515   2.33693   2.34795   2.35191
 Alpha virt. eigenvalues --    2.35862   2.37379   2.37945   2.38541   2.38732
 Alpha virt. eigenvalues --    2.39239   2.40464   2.41057   2.41432   2.43105
 Alpha virt. eigenvalues --    2.43777   2.44500   2.45464   2.46030   2.46799
 Alpha virt. eigenvalues --    2.47020   2.47913   2.48656   2.49695   2.49997
 Alpha virt. eigenvalues --    2.50822   2.51693   2.53528   2.54173   2.54943
 Alpha virt. eigenvalues --    2.55074   2.56010   2.56865   2.57062   2.57535
 Alpha virt. eigenvalues --    2.58108   2.58920   2.59582   2.60409   2.60617
 Alpha virt. eigenvalues --    2.61315   2.61457   2.62438   2.63082   2.63515
 Alpha virt. eigenvalues --    2.64087   2.65073   2.65918   2.66244   2.66673
 Alpha virt. eigenvalues --    2.67350   2.67591   2.68478   2.68838   2.69857
 Alpha virt. eigenvalues --    2.70777   2.71072   2.71551   2.72115   2.72938
 Alpha virt. eigenvalues --    2.73571   2.74258   2.74574   2.75645   2.76018
 Alpha virt. eigenvalues --    2.76805   2.77297   2.78676   2.79070   2.79311
 Alpha virt. eigenvalues --    2.80327   2.81396   2.81564   2.81996   2.82800
 Alpha virt. eigenvalues --    2.83534   2.84378   2.84705   2.85932   2.86874
 Alpha virt. eigenvalues --    2.87662   2.88410   2.88782   2.89568   2.91777
 Alpha virt. eigenvalues --    2.92216   2.92596   2.94003   2.94745   2.95489
 Alpha virt. eigenvalues --    2.95562   2.97885   2.98544   2.99015   2.99604
 Alpha virt. eigenvalues --    3.00344   3.00558   3.01793   3.02205   3.03095
 Alpha virt. eigenvalues --    3.03260   3.04277   3.04568   3.05066   3.05432
 Alpha virt. eigenvalues --    3.06300   3.06931   3.08411   3.08533   3.09309
 Alpha virt. eigenvalues --    3.09505   3.10109   3.10579   3.11523   3.11970
 Alpha virt. eigenvalues --    3.12626   3.13637   3.14069   3.14543   3.15583
 Alpha virt. eigenvalues --    3.16380   3.16797   3.17063   3.17247   3.18156
 Alpha virt. eigenvalues --    3.18214   3.18683   3.18890   3.19778   3.20119
 Alpha virt. eigenvalues --    3.20842   3.22273   3.22707   3.23220   3.23917
 Alpha virt. eigenvalues --    3.24018   3.25335   3.25836   3.26485   3.27105
 Alpha virt. eigenvalues --    3.27506   3.28194   3.28598   3.29266   3.29520
 Alpha virt. eigenvalues --    3.29834   3.30485   3.31449   3.31832   3.32186
 Alpha virt. eigenvalues --    3.33236   3.33623   3.34553   3.35689   3.35968
 Alpha virt. eigenvalues --    3.36170   3.37163   3.37940   3.38301   3.39004
 Alpha virt. eigenvalues --    3.39591   3.39928   3.40156   3.40979   3.41963
 Alpha virt. eigenvalues --    3.42273   3.42915   3.43337   3.43884   3.45094
 Alpha virt. eigenvalues --    3.45247   3.45542   3.46141   3.46817   3.47599
 Alpha virt. eigenvalues --    3.48268   3.48465   3.49202   3.50661   3.50776
 Alpha virt. eigenvalues --    3.51289   3.51713   3.52896   3.53385   3.54191
 Alpha virt. eigenvalues --    3.55601   3.56056   3.57086   3.57279   3.58311
 Alpha virt. eigenvalues --    3.58964   3.59793   3.60903   3.62484   3.63513
 Alpha virt. eigenvalues --    3.64194   3.65609   3.66696   3.68091   3.68284
 Alpha virt. eigenvalues --    3.68868   3.70050   3.70531   3.71234   3.71779
 Alpha virt. eigenvalues --    3.72815   3.73538   3.74616   3.75486   3.77374
 Alpha virt. eigenvalues --    3.77470   3.78235   3.79284   3.81492   3.82130
 Alpha virt. eigenvalues --    3.83249   3.83820   3.84344   3.84914   3.86326
 Alpha virt. eigenvalues --    3.88062   3.88851   3.89607   3.90914   3.91785
 Alpha virt. eigenvalues --    3.93068   3.93358   3.93980   3.94478   3.95992
 Alpha virt. eigenvalues --    3.97281   3.99075   4.00377   4.02282   4.03651
 Alpha virt. eigenvalues --    4.05548   4.05743   4.08014   4.08728   4.09359
 Alpha virt. eigenvalues --    4.10550   4.10888   4.13087   4.14346   4.14609
 Alpha virt. eigenvalues --    4.17532   4.18122   4.19953   4.21149   4.22885
 Alpha virt. eigenvalues --    4.23229   4.25406   4.27045   4.28129   4.28579
 Alpha virt. eigenvalues --    4.29306   4.30827   4.32097   4.33574   4.35563
 Alpha virt. eigenvalues --    4.36300   4.37108   4.38649   4.39833   4.41075
 Alpha virt. eigenvalues --    4.43951   4.44564   4.44918   4.45679   4.47024
 Alpha virt. eigenvalues --    4.48406   4.49374   4.50818   4.52543   4.54456
 Alpha virt. eigenvalues --    4.58074   4.59268   4.60420   4.62126   4.65429
 Alpha virt. eigenvalues --    4.69445   4.70537   4.71324   4.72008   4.73860
 Alpha virt. eigenvalues --    4.75493   4.76162   4.77472   4.78585   4.79494
 Alpha virt. eigenvalues --    4.80495   4.86364   4.86854   4.87152   4.89047
 Alpha virt. eigenvalues --    4.91061   4.92630   4.94621   4.95430   4.97000
 Alpha virt. eigenvalues --    4.98270   4.99292   5.02859   5.03516   5.05041
 Alpha virt. eigenvalues --    5.06466   5.09150   5.11996   5.14773   5.17726
 Alpha virt. eigenvalues --    5.18960   5.22123   5.24995   5.27919   5.28258
 Alpha virt. eigenvalues --    5.29209   5.31626   5.32385   5.33931   5.35241
 Alpha virt. eigenvalues --    5.36665   5.39027   5.39532   5.43070   5.43643
 Alpha virt. eigenvalues --    5.43985   5.50844   5.53292   5.55211   5.61225
 Alpha virt. eigenvalues --    5.66585   5.66827   5.70532   5.72303   5.76009
 Alpha virt. eigenvalues --    5.78280   5.80434   5.83065   5.83906   5.85695
 Alpha virt. eigenvalues --    5.86851   5.87895   5.90179   5.95060   5.96819
 Alpha virt. eigenvalues --    5.98359   5.99929   6.02636   6.14964   6.15236
 Alpha virt. eigenvalues --    6.20660   6.20884   6.27780   6.30324   6.40652
 Alpha virt. eigenvalues --    6.44140   6.50907   6.52823   6.56435   6.57036
 Alpha virt. eigenvalues --    6.61608   6.67639   6.72387   6.74364   6.77228
 Alpha virt. eigenvalues --    6.78892   6.82567   6.84426   6.85734   6.89058
 Alpha virt. eigenvalues --    6.92509   6.93164   6.99246   7.07987   7.10328
 Alpha virt. eigenvalues --    7.13798   7.16783   7.18914   7.22220   7.29382
 Alpha virt. eigenvalues --    7.33797   7.48457   9.07588   9.41956   9.58606
 Alpha virt. eigenvalues --   19.80889  22.32670  22.38290  22.44398  22.50129
 Alpha virt. eigenvalues --   22.55455  22.59289  22.62326  22.66495  22.74648
 Alpha virt. eigenvalues --   22.79998  22.86079  22.90273  22.99111  23.15667
 Alpha virt. eigenvalues --   23.18675  23.48082  32.11794  33.12280  44.13555
 Alpha virt. eigenvalues --   44.24523  44.28804  44.40956  44.50575
          Condensed to atoms (all electrons):
               1          2          3          4          5          6
     1  C    5.106071   0.416815   0.410003  -0.009468   0.001545  -0.000231
     2  H    0.416815   0.516688  -0.020563  -0.001183   0.000212  -0.000004
     3  H    0.410003  -0.020563   0.531324   0.001514  -0.000081   0.000001
     4  C   -0.009468  -0.001183   0.001514   5.404514   0.488199   0.315725
     5  H    0.001545   0.000212  -0.000081   0.488199   0.577954  -0.043629
     6  O   -0.000231  -0.000004   0.000001   0.315725  -0.043629   8.231935
     7  H   -0.000046  -0.000001   0.000002  -0.030579  -0.010243   0.241423
     8  C    0.000839   0.011894  -0.007806  -0.057811  -0.073163  -0.051847
     9  H    0.013857  -0.000007  -0.001391  -0.095385   0.002225   0.004232
    10  O    0.009236  -0.000427   0.000157  -0.049553   0.001300  -0.007359
    11  H   -0.000925  -0.000095   0.000333   0.015131  -0.000607  -0.000401
    12  C   -0.004467   0.000597   0.000051  -0.066532  -0.095824  -0.058344
    13  H    0.000704   0.000018   0.000067  -0.081303   0.005728   0.008992
    14  C    0.167890  -0.048305  -0.037702   0.109786   0.010330   0.006317
    15  H   -0.058029  -0.005896  -0.003181  -0.007526  -0.000149   0.000046
    16  O   -0.027623   0.001249   0.004796  -0.051635   0.000559   0.007043
    17  N   -0.000333  -0.000085  -0.000032   0.017681  -0.008880  -0.001430
    18  C   -0.001751   0.000083   0.000039  -0.005051  -0.002101   0.003264
    19  H   -0.000128  -0.000040   0.000038  -0.007249   0.001600   0.000409
    20  C    0.000102  -0.000026   0.000000   0.003379   0.007384  -0.000840
    21  H    0.000005  -0.000000  -0.000000  -0.000046   0.000133  -0.000008
    22  C   -0.000016   0.000004  -0.000000   0.001776  -0.000796   0.000077
    23  H   -0.000000   0.000000  -0.000000   0.000019  -0.000004   0.000000
    24  H    0.000000  -0.000000   0.000000   0.000049  -0.000060  -0.000025
    25  C   -0.000068  -0.000008   0.000001  -0.010238   0.000026  -0.000562
    26  C   -0.000499   0.000075  -0.000005   0.008289  -0.001679  -0.005493
    27  H   -0.000018   0.000001  -0.000000   0.000325  -0.000161   0.000002
    28  C   -0.000000   0.000000  -0.000000  -0.000000   0.000012  -0.000029
    29  O   -0.000000  -0.000000  -0.000000   0.000014   0.000000  -0.000000
    30  N   -0.000000  -0.000000   0.000000   0.000000  -0.000000   0.000000
    31  H   -0.000000   0.000000  -0.000000  -0.000000   0.000000  -0.000000
    32  H    0.000000  -0.000000  -0.000000   0.000000   0.000000   0.000000
    33  C    0.000002  -0.000000  -0.000000   0.000974  -0.000577  -0.022379
    34  C    0.000001  -0.000000   0.000000  -0.000640   0.000217   0.017743
    35  C   -0.000000   0.000000  -0.000000  -0.000760   0.000545   0.002546
    36  C   -0.000000   0.000000   0.000000   0.000003   0.000001   0.000003
    37  C   -0.000000  -0.000000   0.000000   0.000269   0.000011   0.000103
    38  O   -0.000000   0.000000   0.000000   0.018612   0.000285  -0.117283
    39  S   -0.000000  -0.000000  -0.000000  -0.001520   0.000010   0.001312
    40  H   -0.000000   0.000000  -0.000000   0.000107   0.000052   0.000156
    41  H   -0.000006   0.000000  -0.000000   0.000589   0.000573   0.010140
    42  H   -0.000000   0.000000   0.000000   0.000000  -0.000000  -0.000000
    43  H    0.000000  -0.000000  -0.000000   0.000000   0.000000   0.000000
    44  H    0.000000  -0.000000  -0.000000   0.000000  -0.000000  -0.000000
    45  H    0.000000  -0.000000  -0.000000  -0.000036   0.000009   0.000038
    46  H    0.000000  -0.000000  -0.000000  -0.000026  -0.000001   0.000036
    47  H    0.383768  -0.025032  -0.022742   0.001670  -0.000133   0.000005
    48  H    0.000000   0.000000  -0.000000  -0.000079   0.000005   0.000378
               7          8          9         10         11         12
     1  C   -0.000046   0.000839   0.013857   0.009236  -0.000925  -0.004467
     2  H   -0.000001   0.011894  -0.000007  -0.000427  -0.000095   0.000597
     3  H    0.000002  -0.007806  -0.001391   0.000157   0.000333   0.000051
     4  C   -0.030579  -0.057811  -0.095385  -0.049553   0.015131  -0.066532
     5  H   -0.010243  -0.073163   0.002225   0.001300  -0.000607  -0.095824
     6  O    0.241423  -0.051847   0.004232  -0.007359  -0.000401  -0.058344
     7  H    0.296063   0.006155  -0.000082  -0.000526   0.000104   0.014234
     8  C    0.006155   5.401937   0.497033   0.297736  -0.038974   0.015453
     9  H   -0.000082   0.497033   0.571972  -0.057846  -0.006466   0.012335
    10  O   -0.000526   0.297736  -0.057846   8.015725   0.291550  -0.015188
    11  H    0.000104  -0.038974  -0.006466   0.291550   0.427797  -0.004452
    12  C    0.014234   0.015453   0.012335  -0.015188  -0.004452   5.688085
    13  H   -0.000378   0.017779   0.002647   0.016989  -0.001040   0.428554
    14  C   -0.000574   0.093800  -0.108833  -0.063865   0.001659  -0.075503
    15  H    0.000053  -0.025635   0.007968  -0.003120   0.002428  -0.001734
    16  O   -0.000242  -0.046341   0.004397   0.009000   0.000109   0.207266
    17  N    0.000697  -0.001980  -0.000549  -0.000196  -0.000016   0.184882
    18  C   -0.001819  -0.002657  -0.000187  -0.000266   0.000010  -0.088242
    19  H   -0.000137   0.000209   0.000048   0.000005  -0.000000   0.009272
    20  C   -0.000222  -0.001359   0.000044   0.000015  -0.000001   0.011104
    21  H    0.000003  -0.000009   0.000000   0.000000  -0.000000   0.000298
    22  C   -0.000103   0.000017  -0.000006  -0.000004   0.000000  -0.009222
    23  H   -0.000003   0.000000  -0.000000  -0.000000   0.000000   0.000050
    24  H   -0.000067   0.000010  -0.000000   0.000000   0.000000   0.000685
    25  C    0.001000  -0.000044   0.000007  -0.000032  -0.000001  -0.006976
    26  C   -0.000083  -0.003444  -0.000112  -0.000595  -0.000058  -0.065114
    27  H    0.000159  -0.000077  -0.000014  -0.000182   0.000007  -0.003119
    28  C    0.000058  -0.000001   0.000000   0.000000  -0.000000  -0.000298
    29  O    0.000007   0.000000   0.000000  -0.000000   0.000000   0.000402
    30  N    0.000000  -0.000000  -0.000000  -0.000000  -0.000000   0.000007
    31  H   -0.000000  -0.000000   0.000000  -0.000000  -0.000000  -0.000003
    32  H   -0.000000  -0.000000  -0.000000   0.000000  -0.000000  -0.000010
    33  C   -0.000110   0.001014   0.000033  -0.000856   0.000063  -0.000365
    34  C   -0.015791   0.000053  -0.000024   0.000052  -0.000000  -0.003136
    35  C    0.001884  -0.000318  -0.000002   0.000004  -0.000001  -0.000551
    36  C   -0.000017   0.000000  -0.000000   0.000000  -0.000000   0.000000
    37  C   -0.000349   0.000013  -0.000000  -0.000000   0.000000  -0.000868
    38  O    0.114885  -0.000651   0.000001  -0.000004  -0.000001   0.005453
    39  S    0.001285   0.000213  -0.000000   0.000002  -0.000003   0.000429
    40  H   -0.000272  -0.000063   0.000001   0.000017  -0.000001   0.000039
    41  H   -0.011883  -0.001353  -0.000018   0.002632  -0.000186  -0.000139
    42  H   -0.000001   0.000000  -0.000000  -0.000000   0.000000  -0.000000
    43  H    0.000000   0.000000   0.000000   0.000000   0.000000   0.000001
    44  H    0.000000   0.000000  -0.000000  -0.000000   0.000000   0.000001
    45  H    0.000013  -0.000000   0.000000  -0.000000  -0.000000  -0.000057
    46  H   -0.000188  -0.000001  -0.000000   0.000000   0.000000   0.000194
    47  H    0.000009  -0.011048   0.000315   0.000191   0.000100  -0.001368
    48  H    0.000937  -0.000036   0.000002   0.000001  -0.000003   0.000016
              13         14         15         16         17         18
     1  C    0.000704   0.167890  -0.058029  -0.027623  -0.000333  -0.001751
     2  H    0.000018  -0.048305  -0.005896   0.001249  -0.000085   0.000083
     3  H    0.000067  -0.037702  -0.003181   0.004796  -0.000032   0.000039
     4  C   -0.081303   0.109786  -0.007526  -0.051635   0.017681  -0.005051
     5  H    0.005728   0.010330  -0.000149   0.000559  -0.008880  -0.002101
[...]
      4        6          -0.005335183    0.021337764    0.021074884
      5        1           0.010304534    0.001656331   -0.012084105
      6        8           0.016592008   -0.012209471   -0.005683384
      7        1          -0.003476616   -0.001992890   -0.004330223
      8        6           0.015239553    0.000748764   -0.005597166
      9        1          -0.007708889    0.003134905   -0.010983087
     10        8          -0.002439202    0.007762187    0.002086033
     11        1          -0.009805116   -0.006516477   -0.001843000
     12        6           0.031617261   -0.023669656    0.002769894
     13        1          -0.011898527   -0.005726636    0.001831928
     14        6          -0.018173227    0.001553195   -0.000816810
     15        1          -0.005702036   -0.006676502    0.009911446
     16        8          -0.000226025   -0.002901771   -0.002605482
     17        7           0.004580655    0.004884281    0.006480867
     18        6          -0.005785370   -0.003579586   -0.000187409
     19        1          -0.000683946    0.006809001   -0.002600067
     20        6          -0.006590428   -0.003288208   -0.004070484
     21        1           0.005220458    0.005117058    0.001030152
     22        6           0.015224605    0.006287739    0.003877175
     23        1           0.005302900   -0.000437866    0.004651900
     24        1          -0.001862587   -0.000593665    0.001921977
     25        6          -0.013539924   -0.006570719   -0.004519072
     26        6          -0.006454286    0.005640219    0.002074920
     27        1          -0.006507678   -0.005219496    0.000159138
     28        6          -0.014351679   -0.013088969   -0.001957772
     29        8           0.018458676    0.016317322    0.014136656
     30        7           0.003073075   -0.008801564   -0.005074901
     31        1          -0.002526906    0.000573945   -0.001191981
     32        1          -0.001809236    0.000782472   -0.002579759
     33        6          -0.008172280   -0.012328569   -0.012111852
     34        6           0.015807840   -0.053756324    0.022277066
     35        6          -0.025159298    0.016173452   -0.024515610
     36        6           0.008205882   -0.012776541    0.007468282
     37        6           0.008821475    0.010834241    0.009484447
     38        8          -0.010388086    0.027291555   -0.009902998
     39       16           0.012660982    0.012132301    0.005036919
     40        1           0.007348212    0.001280069   -0.000742400
     41        1          -0.003206247    0.004976055    0.007886999
     42        1           0.002419899    0.004443110    0.000040792
     43        1          -0.003736469    0.000014256    0.000995470
     44        1           0.001006802   -0.002216305   -0.004132101
     45        1           0.003799869    0.000724324   -0.008411906
     46        1          -0.004572310   -0.001468642    0.001290291
     47        1           0.001260782   -0.001208507   -0.000955508
     48        1          -0.003329377    0.003858024   -0.004590755
 -------------------------------------------------------------------
 Cartesian Forces:  Max     0.053756324 RMS     0.010406392
 Leave Link  716 at Wed Mar  8 15:48:39 2023, MaxMem=  2684354560 cpu:               0.5 elap:               0.0
 (Enter /opt/gaussian/g16/l103.exe)

 GradGradGradGradGradGradGradGradGradGradGradGradGradGradGradGradGradGrad
 Berny optimization.
 Search for a local minimum.
 Step number   1 out of a maximum of    2
 All quantities printed in internal units (Hartrees-Bohrs-Radians)
 Second derivative matrix not updated -- first step.
 ITU=  0
     Eigenvalues ---    0.00040   0.00062   0.00099   0.00123   0.00152
     Eigenvalues ---    0.00159   0.00192   0.00220   0.00435   0.00528
     Eigenvalues ---    0.00585   0.00703   0.00798   0.00903   0.00957
     Eigenvalues ---    0.01046   0.01199   0.01248   0.01402   0.01544
     Eigenvalues ---    0.01799   0.01912   0.02199   0.02397   0.02570
     Eigenvalues ---    0.02908   0.03080   0.03704   0.03740   0.03876
     Eigenvalues ---    0.04308   0.04513   0.04754   0.04963   0.05048
     Eigenvalues ---    0.05079   0.05198   0.05474   0.05695   0.05798
     Eigenvalues ---    0.06021   0.06388   0.06714   0.06901   0.06958
     Eigenvalues ---    0.07240   0.07553   0.07699   0.08130   0.08417
     Eigenvalues ---    0.08447   0.08703   0.08791   0.09442   0.10256
     Eigenvalues ---    0.10797   0.11027   0.11188   0.11863   0.12222
     Eigenvalues ---    0.13014   0.13103   0.13267   0.13402   0.13598
     Eigenvalues ---    0.13834   0.14073   0.15086   0.15583   0.16159
     Eigenvalues ---    0.17543   0.17836   0.18222   0.18718   0.20187
     Eigenvalues ---    0.20422   0.20575   0.21125   0.22255   0.25479
     Eigenvalues ---    0.25581   0.26092   0.27898   0.28683   0.32366
     Eigenvalues ---    0.32985   0.33305   0.33598   0.36283   0.36803
     Eigenvalues ---    0.36803   0.36803   0.36803   0.36803   0.39928
     Eigenvalues ---    0.42758   0.46827   0.47542   0.53137   0.56345
     Eigenvalues ---    0.58883   0.59130   0.66276   0.70370   0.72163
     Eigenvalues ---    0.77021   0.77360   0.78626   0.82831   0.84942
     Eigenvalues ---    0.87897   0.89039   0.90246   0.91042   0.92410
     Eigenvalues ---    0.92798   0.93499   0.96011   0.96308   0.99416
     Eigenvalues ---    1.01385   1.03543   1.04839   1.05026   1.10734
     Eigenvalues ---    1.13702   1.22895   1.25718   1.26369   1.28369
     Eigenvalues ---    1.31272   1.32517   1.43418   1.51098   1.71781
     Eigenvalues ---    1.74627   1.79958   2.50591
 Quadratic step=3.873D+00 exceeds max=3.000D-01 adjusted using Lamda=-8.166D-02.
 Angle between NR and scaled steps=  70.76 degrees.
 Angle between quadratic step and forces=  49.32 degrees.
 Linear search not attempted -- first point.
 Variable       Old X    -DE/DX   Delta X   Delta X   Delta X     New X
                                 (Linear)    (Quad)   (Total)
    X1        6.58889   0.00292   0.00000  -0.01523  -0.01523   6.57366
    Y1       -6.72194   0.02723   0.00000   0.05972   0.05972  -6.66222
    Z1       -1.30651   0.00157   0.00000   0.01332   0.01332  -1.29319
    X2        6.55255   0.00072   0.00000   0.00044   0.00044   6.55298
    Y2       -6.89616  -0.00346   0.00000   0.00016   0.00016  -6.89600
    Z2       -3.37488   0.00684   0.00000   0.03058   0.03058  -3.34430
    X3        8.39562  -0.00714   0.00000  -0.03866  -0.03866   8.35696
    Y3       -7.41776  -0.00308   0.00000   0.00825   0.00825  -7.40951
    Z3       -0.55232  -0.00341   0.00000  -0.00372  -0.00372  -0.55604
    X4        3.05308  -0.00534   0.00000   0.03046   0.03046   3.08355
    Y4       -2.17945   0.02134   0.00000   0.02765   0.02765  -2.15180
    Z4        2.05836   0.02107   0.00000   0.01686   0.01686   2.07522
    X5        1.67201   0.01030   0.00000   0.07139   0.07139   1.74340
    Y5       -3.76578   0.00166   0.00000   0.00581   0.00581  -3.75997
    Z5        2.12852  -0.01208   0.00000  -0.07003  -0.07003   2.05849
    X6        2.52903   0.01659   0.00000   0.04703   0.04703   2.57606
    Y6       -0.56258  -0.01221   0.00000  -0.01121  -0.01121  -0.57380
    Z6        4.03955  -0.00568   0.00000   0.01214   0.01214   4.05169
    X7        0.73601  -0.00348   0.00000   0.02298   0.02298   0.75899
    Y7        0.29859  -0.00199   0.00000  -0.03331  -0.03331   0.26528
    Z7        3.98706  -0.00433   0.00000  -0.02643  -0.02643   3.96063
    X8        5.84814   0.01524   0.00000   0.01030   0.01030   5.85844
    Y8       -3.15854   0.00075   0.00000   0.02840   0.02840  -3.13014
    Z8        2.15913  -0.00560   0.00000  -0.02007  -0.02007   2.13906
    X9        6.16072  -0.00771   0.00000  -0.04074  -0.04074   6.11998
    Y9       -4.70107   0.00313   0.00000   0.00702   0.00702  -4.69405
    Z9        3.54348  -0.01098   0.00000  -0.06257  -0.06257   3.48091
   X10        7.36720  -0.00244   0.00000  -0.02174  -0.02174   7.34547
   Y10       -1.07038   0.00776   0.00000   0.03428   0.03428  -1.03610
   Z10        2.87323   0.00209   0.00000   0.00311   0.00311   2.87635
   X11        9.15821  -0.00981   0.00000  -0.04581  -0.04581   9.11240
   Y11       -1.43966  -0.00652   0.00000  -0.03641  -0.03641  -1.47606
   Z11        2.91190  -0.00184   0.00000  -0.00848  -0.00848   2.90342
   X12        3.15908   0.03162   0.00000   0.04140   0.04140   3.20048
   Y12       -0.82688  -0.02367   0.00000  -0.04330  -0.04330  -0.87018
   Z12       -0.55291   0.00277   0.00000  -0.00081  -0.00081  -0.55372
   X13        4.31844  -0.01190   0.00000  -0.03458  -0.03458   4.28386
   Y13        0.90996  -0.00573   0.00000  -0.02299  -0.02299   0.88696
   Z13       -0.37590   0.00183   0.00000   0.00901   0.00901  -0.36690
   X14        6.47376  -0.01817   0.00000  -0.04837  -0.04837   6.42539
   Y14       -3.86510   0.00155   0.00000   0.01648   0.01648  -3.84863
   Z14       -0.65737  -0.00082   0.00000  -0.00116  -0.00116  -0.65852
   X15        8.21626  -0.00570   0.00000  -0.02750  -0.02750   8.18875
   Y15       -2.90479  -0.00668   0.00000  -0.02550  -0.02550  -2.93029
   Z15       -1.31849   0.00991   0.00000   0.05606   0.05606  -1.26242
   X16        4.43767  -0.00023   0.00000  -0.00971  -0.00971   4.42797
   Y16       -2.64496  -0.00290   0.00000  -0.02135  -0.02135  -2.66631
   Z16       -2.08581  -0.00261   0.00000  -0.03242  -0.03242  -2.11824
   X17        0.81593   0.00458   0.00000   0.00667   0.00667   0.82260
   Y17       -0.24302   0.00488   0.00000  -0.00089  -0.00089  -0.24392
   Z17       -1.87395   0.00648   0.00000   0.02761   0.02761  -1.84634
   X18       -0.86599  -0.00579   0.00000  -0.00715  -0.00715  -0.87314
   Y18       -2.11932  -0.00358   0.00000   0.00574   0.00574  -2.11358
   Z18       -2.25787  -0.00019   0.00000   0.00376   0.00376  -2.25410
   X19       -0.37204  -0.00068   0.00000  -0.00210  -0.00210  -0.37414
   Y19       -3.96150   0.00681   0.00000   0.01907   0.01907  -3.94242
   Z19       -1.48696  -0.00260   0.00000  -0.00955  -0.00955  -1.49651
   X20       -3.05784  -0.00659   0.00000   0.00233   0.00233  -3.05551
   Y20       -1.65669  -0.00329   0.00000   0.00053   0.00053  -1.65616
   Z20       -3.55040  -0.00407   0.00000  -0.00963  -0.00963  -3.56004
   X21       -4.42286   0.00522   0.00000   0.01484   0.01484  -4.40801
   Y21       -3.18163   0.00512   0.00000   0.01215   0.01215  -3.16948
   Z21       -3.79471   0.00103   0.00000  -0.00686  -0.00686  -3.80157
   X22       -3.53765   0.01522   0.00000   0.02250   0.02250  -3.51515
   Y22        0.75924   0.00629   0.00000   0.00025   0.00025   0.75949
   Z22       -4.52981   0.00388   0.00000   0.00390   0.00390  -4.52591
   X23       -5.27195   0.00530   0.00000   0.02826   0.02826  -5.24369
   Y23        1.15418  -0.00044   0.00000   0.00102   0.00102   1.15520
   Z23       -5.57314   0.00465   0.00000   0.01896   0.01896  -5.55418
   X24       -5.44413  -0.00186   0.00000   0.00430   0.00430  -5.43983
   Y24        2.44346  -0.00059   0.00000   0.00592   0.00592   2.44937
   Z24       -0.77537   0.00192   0.00000   0.01738   0.01738  -0.75798
   X25       -1.70900  -0.01354   0.00000  -0.02562  -0.02562  -1.73462
   Y25        2.66040  -0.00657   0.00000  -0.00344  -0.00344   2.65696
   Z25       -4.13856  -0.00452   0.00000   0.01387   0.01387  -4.12469
   X26        0.44087  -0.00645   0.00000  -0.03238  -0.03238   0.40849
   Y26        2.11317   0.00564   0.00000   0.00171   0.00171   2.11489
   Z26       -2.75038   0.00207   0.00000   0.02863   0.02863  -2.72175
   X27        1.88633  -0.00651   0.00000  -0.04109  -0.04109   1.84524
   Y27        3.53441  -0.00522   0.00000  -0.00888  -0.00888   3.52553
   Z27       -2.35570   0.00016   0.00000   0.01611   0.01611  -2.33960
   X28       -2.13445  -0.01435   0.00000  -0.03053  -0.03053  -2.16498
   Y28        5.34214  -0.01309   0.00000  -0.00159  -0.00159   5.34055
   Z28       -5.04745  -0.00196   0.00000   0.02988   0.02988  -5.01757
   X29       -1.39936   0.01846   0.00000   0.07290   0.07290  -1.32646
   Y29        7.13678   0.01632   0.00000  -0.00505  -0.00505   7.13173
   Z29       -3.90907   0.01414   0.00000   0.01117   0.01117  -3.89790
   X30       -3.64931   0.00307   0.00000   0.01115   0.01115  -3.63816
   Y30        5.60449  -0.00880   0.00000  -0.01917  -0.01917   5.58532
   Z30       -7.11992  -0.00507   0.00000  -0.01486  -0.01486  -7.13477
   X31       -3.66375  -0.00253   0.00000  -0.01075  -0.01075  -3.67450
   Y31        7.37160   0.00057   0.00000  -0.01528  -0.01528   7.35632
   Z31       -7.82939  -0.00119   0.00000  -0.01445  -0.01445  -7.84384
   X32       -3.72427  -0.00181   0.00000  -0.00232  -0.00232  -3.72659
   Y32        4.17254   0.00078   0.00000  -0.01258  -0.01258   4.15996
   Z32       -8.36774  -0.00258   0.00000  -0.02064  -0.02064  -8.38837
   X33        1.71924  -0.00817   0.00000  -0.01991  -0.01991   1.69933
   Y33        4.00224  -0.01233   0.00000  -0.01965  -0.01965   3.98259
   Z33        7.39448  -0.01211   0.00000  -0.02679  -0.02679   7.36769
   X34       -1.68082   0.01581   0.00000   0.00240   0.00240  -1.67842
   Y34        3.86163  -0.05376   0.00000  -0.03474  -0.03474   3.82689
   Z34        3.23335   0.02228   0.00000  -0.00149  -0.00149   3.23186
   X35       -3.32209  -0.02516   0.00000  -0.01379  -0.01379  -3.33588
   Y35        5.00340   0.01617   0.00000   0.01561   0.01561   5.01901
   Z35        1.68904  -0.02452   0.00000  -0.02015  -0.02015   1.66889
   X36       -7.44605   0.00821   0.00000   0.02319   0.02319  -7.42286
   Y36        6.02865  -0.01278   0.00000  -0.02531  -0.02531   6.00334
   Z36       -0.56931   0.00747   0.00000   0.01867   0.01867  -0.55064
   X37       -5.79103   0.00882   0.00000   0.02302   0.02302  -5.76802
   Y37        3.92356   0.01083   0.00000   0.01494   0.01494   3.93850
   Z37        0.64224   0.00948   0.00000   0.01119   0.01119   0.65343
   X38       -1.60578  -0.01039   0.00000  -0.07336  -0.07336  -1.67914
   Y38        1.43776   0.02729   0.00000   0.00443   0.00443   1.44219
   Z38        3.80899  -0.00990   0.00000  -0.02088  -0.02088   3.78810
   X39        0.65716   0.01266   0.00000   0.02712   0.02712   0.68428
   Y39        5.83441   0.01213   0.00000   0.00141   0.00141   5.83582
   Z39        4.66303   0.00504   0.00000  -0.00712  -0.00712   4.65591
   X40        0.02669   0.00735   0.00000   0.01313   0.01313   0.03982
   Y40        3.30056   0.00128   0.00000  -0.00652  -0.00652   3.29404
   Z40        8.36774  -0.00074   0.00000   0.00106   0.00106   8.36880
   X41        2.85192  -0.00321   0.00000   0.00228   0.00228   2.85419
   Y41        2.41949   0.00498   0.00000  -0.00383  -0.00383   2.41566
   Z41        6.67905   0.00789   0.00000   0.03939   0.03939   6.71844
   X42       -9.15821   0.00242   0.00000   0.01872   0.01872  -9.13949
   Y42        5.18515   0.00444   0.00000   0.00835   0.00835   5.19350
   Z42       -1.37557   0.00004   0.00000   0.01074   0.01074  -1.36483
   X43       -6.35877  -0.00374   0.00000  -0.01001  -0.01001  -6.36878
   Y43        6.98964   0.00001   0.00000  -0.00545  -0.00545   6.98419
   Z43       -2.04543   0.00100   0.00000   0.01308   0.01308  -2.03235
   X44       -7.98406   0.00101   0.00000   0.01453   0.01453  -7.96954
   Y44        7.41776  -0.00222   0.00000  -0.01618  -0.01618   7.40157
   Z44        0.87148  -0.00413   0.00000  -0.00507  -0.00507   0.86641
   X45       -6.83138   0.00380   0.00000   0.02595   0.02595  -6.80543
   Y45        3.02331   0.00072   0.00000  -0.00023  -0.00023   3.02308
   Z45        2.21743  -0.00841   0.00000  -0.02024  -0.02024   2.19719
   X46       -2.95723  -0.00457   0.00000  -0.03353  -0.03353  -2.99077
   Y46        6.99469  -0.00147   0.00000   0.01570   0.01570   7.01039
   Z46        1.32099   0.00129   0.00000   0.00757   0.00757   1.32856
   X47        4.99836   0.00126   0.00000   0.00181   0.00181   5.00018
   Y47       -7.72153  -0.00121   0.00000   0.01884   0.01884  -7.70270
   Z47       -0.46163  -0.00096   0.00000  -0.00234  -0.00234  -0.46397
   X48        2.85497  -0.00333   0.00000  -0.03841  -0.03841   2.81656
   Y48        5.17636   0.00386   0.00000   0.02387   0.02387   5.20023
   Z48        8.64920  -0.00459   0.00000  -0.04575  -0.04575   8.60346
         Item               Value     Threshold  Converged?
 Maximum Force            0.053756     0.000450     NO 
 RMS     Force            0.010406     0.000300     NO 
 Maximum Displacement     0.073365     0.001800     NO 
 RMS     Displacement     0.025016     0.001200     NO 
 Predicted change in Energy=-1.589830D-02
 GradGradGradGradGradGradGradGradGradGradGradGradGradGradGradGradGradGrad

 Leave Link  103 at Wed Mar  8 15:48:39 2023, MaxMem=  2684354560 cpu:               1.1 elap:               0.1
 (Enter /opt/gaussian/g16/l9999.exe)

 Test job not archived.
 1\1\GINC-JULIO-SYS\Force\RM062X\def2TZVP\C16H24N2O5S1\JVELAZQUEZ\08-Ma
 r-2023\0\\#P M062X/Def2TZVP scf=(direct,conver=8) EmpiricalDispersion=
 GD3 NoSymm Force pop=(NBORead) Charge Prop=(Field,Read)\\Gaussian run 
 using SANDER external interface, route from template gau_job.tpl\\0,1\
 C,3.4866917296,-3.5571000253,-0.6913779345\H,3.467459217,-3.6492882271
 ,-1.7859109795\H,4.442768322,-3.9253076682,-0.2922766035\C,1.61562156,
 -1.1533144371,1.0892386844\H,0.8847910197,-1.9927662182,1.1263641194\O
 ,1.3383039644,-0.2977065411,2.1376375529\H,0.3894776589,0.1580056392,2
 .1098634292\C,3.0947023717,-1.6714268521,1.1425626153\H,3.260110814,-2
 .4876966211,1.8751270036\O,3.8985555287,-0.5664204692,1.5204489711\H,4
 .8463152905,-0.7618334566,1.5409124556\C,1.6717112045,-0.4375672125,-0
 .2925897543\H,2.2852200826,0.4815276463,-0.1989202704\C,3.4257655211,-
 2.0453254636,-0.347863845\H,4.347855883,-1.5371486722,-0.6977139981\O,
 2.348314413,-1.3996509516,-1.103765518\N,0.431770383,-0.1286022546,-0.
 9916527185\C,-0.4582602185,-1.1214938628,-1.1948107405\H,-0.1968753268
 ,-2.0963344933,-0.7868632177\C,-1.6181377501,-0.87668227,-1.8787915778
 \H,-2.340474564,-1.6836458129,-2.0080717401\C,-1.8720464058,0.40177261
 98,-2.3970711203\H,-2.7897963942,0.6107669429,-2.9491781508\H,-2.88091
 1383,1.2930214025,-0.4103070003\C,-0.9043621512,1.4078210128,-2.190032
 1077\C,0.2332979376,1.1182430089,-1.455435825\H,0.9982002674,1.8703314
 285,-1.2465834154\C,-1.1295023284,2.8269391486,-2.6709937119\O,-0.7405
 09441,3.776621817,-2.0685915036\N,-1.931132398,2.9657687127,-3.7676986
 775\H,-1.9387726954,3.9008825221,-4.1431324329\H,-1.970799486,2.208015
 1945,-4.4280150901\C,0.9097842598,2.1178937182,3.9129900925\C,-0.88944
 93951,2.0434870992,1.711014815\C,-1.7579759643,2.6476857814,0.89379900
 33\C,-3.94028101,3.1902246544,-0.3012662233\C,-3.0644827235,2.07625998
 73,0.3398583439\O,-0.8497396177,0.7608294621,2.015628562\S,0.347753437
 3,3.087437009,2.4675697878\H,0.0141231053,1.7465797469,4.4280150901\H,
 1.5091689343,1.2803396673,3.5344014378\H,-4.8463152905,2.7438640799,-0
 .7279216118\H,-3.3649154342,3.6987584761,-1.0823975784\H,-4.2249837963
 ,3.9253076682,0.4611672299\H,-3.6150100405,1.5998655213,1.1734107886\H
 ,-1.5648999937,3.701430437,0.6990380288\H,2.6450205889,-4.0860596915,-
 0.2442858161\H,1.5107868754,2.7392138396,4.576960847\\Version=ES64L-G1
 6RevA.03\HF=-1507.8489887\RMSD=5.786e-09\RMSF=1.041e-02\Dipole=0.55345
 3,-2.7640107,-4.1278771\Quadrupole=8.7962446,-11.2789469,2.4827023,-4.
 2896441,11.7097129,-11.7060751\PG=C01 [X(C16H24N2O5S1)]\\@


 IN THE WOODS WE RETURN TO REASON AND FAITH.

                                 -- EMERSON
 Job cpu time:       0 days  6 hours 40 minutes 52.5 seconds.
 Elapsed time:       0 days  0 hours 25 minutes  5.7 seconds.
 File lengths (MBytes):  RWF=    435 Int=      0 D2E=      0 Chk=     48 Scr=      1
 Normal termination of Gaussian 16 at Wed Mar  8 15:48:39 2023.
