 Entering Gaussian System, Link 0=g16
 Initial command:
 /opt/gaussian/g16/l1.exe "/opt/gaussian/scratch16/Gau-3401446.inp" -scrdir="/opt/gaussian/scratch16/"
 Entering Link 1 = /opt/gaussian/g16/l1.exe PID=   3401448.
  
 Copyright (c) 1988,1990,1992,1993,1995,1998,2003,2009,2016,
            Gaussian, Inc.  All Rights Reserved.
  
 This is part of the Gaussian(R) 16 program.  It is based on
 the Gaussian(R) 09 system (copyright 2009, Gaussian, Inc.),
 the Gaussian(R) 03 system (copyright 2003, Gaussian, Inc.),
 the Gaussian(R) 98 system (copyright 1998, Gaussian, Inc.),
 the Gaussian(R) 94 system (copyright 1995, Gaussian, Inc.),
 the Gaussian 92(TM) system (copyright 1992, Gaussian, Inc.),
 the Gaussian 90(TM) system (copyright 1990, Gaussian, Inc.),
 the Gaussian 88(TM) system (copyright 1988, Gaussian, Inc.),
 the Gaussian 86(TM) system (copyright 1986, Carnegie Mellon
 University), and the Gaussian 82(TM) system (copyright 1983,
 Carnegie Mellon University). Gaussian is a federally registered
 trademark of Gaussian, Inc.
  
 This software contains proprietary and confidential information,
 including trade secrets, belonging to Gaussian, Inc.
  
 This software is provided under written license and may be
 used, copied, transmitted, or stored only in accord with that
 written license.
  
 The following legend is applicable only to US Government
 contracts under FAR:
  
                    RESTRICTED RIGHTS LEGEND
  
 Use, reproduction and disclosure by the US Government is
 subject to restrictions as set forth in subparagraphs (a)
 and (c) of the Commercial Computer Software - Restricted
 Rights clause in FAR 52.227-19.
  
 Gaussian, Inc.
 340 Quinnipiac St., Bldg. 40, Wallingford CT 06492
  
  
 ---------------------------------------------------------------
 Warning -- This program may not be used in any manner that
 competes with the business of Gaussian, Inc. or will provide
 assistance to any competitor of Gaussian, Inc.  The licensee
 of this program is prohibited from giving any competitor of
 Gaussian, Inc. access to this program.  By using this program,
 the user acknowledges that Gaussian, Inc. is engaged in the
 business of creating and licensing software in the field of
 computational chemistry and represents and warrants to the
 licensee that it is not a competitor of Gaussian, Inc. and that
 it will not use this program in any manner prohibited above.
 ---------------------------------------------------------------
  

 Cite this work as:
 Gaussian 16, Revision A.03,
 M. J. Frisch, G. W. Trucks, H. B. Schlegel, G. E. Scuseria, 
 M. A. Robb, J. R. Cheeseman, G. Scalmani, V. Barone, 
 G. A. Petersson, H. Nakatsuji, X. Li, M. Caricato, A. V. Marenich, 
 J. Bloino, B. G. Janesko, R. Gomperts, B. Mennucci, H. P. Hratchian, 
 J. V. Ortiz, A. F. Izmaylov, J. L. Sonnenberg, D. Williams-Young, 
 F. Ding, F. Lipparini, F. Egidi, J. Goings, B. Peng, A. Petrone, 
 T. Henderson, D. Ranasinghe, V. G. Zakrzewski, J. Gao, N. Rega, 
 G. Zheng, W. Liang, M. Hada, M. Ehara, K. Toyota, R. Fukuda, 
 J. Hasegawa, M. Ishida, T. Nakajima, Y. Honda, O. Kitao, H. Nakai, 
 T. Vreven, K. Throssell, J. A. Montgomery, Jr., J. E. Peralta, 
 F. Ogliaro, M. J. Bearpark, J. J. Heyd, E. N. Brothers, K. N. Kudin, 
 V. N. Staroverov, T. A. Keith, R. Kobayashi, J. Normand, 
 K. Raghavachari, A. P. Rendell, J. C. Burant, S. S. Iyengar, 
 J. Tomasi, M. Cossi, J. M. Millam, M. Klene, C. Adamo, R. Cammi, 
 J. W. Ochterski, R. L. Martin, K. Morokuma, O. Farkas, 
 J. B. Foresman, and D. J. Fox, Gaussian, Inc., Wallingford CT, 2016.
 
 ******************************************
 Gaussian 16:  ES64L-G16RevA.03 25-Dec-2016
                 9-Apr-2023 
 ******************************************
 %chk=1.chk
 %NProcShared=16
 Will use up to   16 processors via shared memory.
 %mem=20GB
 ----------------------------------------------------------------------
 #P M062X/Def2TZVP scf=(direct,conver=8) EmpiricalDispersion=GD3 NoSymm
  Force pop=(NBORead) Charge Prop=(Field,Read)
 ----------------------------------------------------------------------
 1/10=7,18=10,28=-2,30=1,38=1,125=101/1,3;
 2/12=2,15=1,17=6,18=5,29=2,40=1/2;
 3/5=44,7=101,11=2,25=1,30=1,71=1,74=-55,124=31/1,2,3;
 4//1;
 5/5=2,6=8,38=5/2;
 6/7=2,8=2,9=2,10=2,14=2,15=1,28=1,40=2/1,2,7;
 7/7=1,16=-2,29=1,30=1/1,2,3,16;
 1/10=7,18=10,28=-2,30=1/3;
 99/12=1/99;
 Leave Link    1 at Sun Apr  9 09:29:07 2023, MaxMem=  2684354560 cpu:               0.6 elap:               0.0
 (Enter /opt/gaussian/g16/l101.exe)
 ----------------------------------------------------------------------
 Gaussian run using SANDER external interface, route from template gau_
 job.tpl
 ----------------------------------------------------------------------
 Symbolic Z-matrix:
 Charge =  0 Multiplicity = 1
 C                     3.43201  -3.87459  -0.67066 
 H                     3.51033  -4.02634  -1.74355 
 H                     4.32549  -4.25137  -0.18002 
 C                     1.61487  -1.54058   1.0433 
 H                     0.96087  -2.43295   1.03611 
 O                     1.31231  -0.69992   2.12598 
 H                     0.41416  -0.36585   2.01107 
 C                     3.08592  -1.99915   1.08136 
 H                     3.21237  -2.87181   1.7425 
 O                     3.84918  -0.90427   1.52075 
 H                     4.7719   -1.1795    1.56727 
 C                     1.57224  -0.88497  -0.35905 
 H                     2.09163   0.08275  -0.27422 
 C                     3.35093  -2.37508  -0.41166 
 H                     4.30264  -1.92182  -0.72303 
 O                     2.29127  -1.78337  -1.18357 
 N                     0.24826  -0.61517  -0.91355 
 C                    -0.66471  -1.64981  -1.15384 
 H                    -0.37126  -2.63593  -0.82491 
 C                    -1.82009  -1.43534  -1.74749 
 H                    -2.5088   -2.24767  -1.91377 
 C                    -2.24554  -0.08858  -2.24803 
 H                    -2.59306  -0.2039   -3.27732 
 H                    -3.10264   0.27952  -1.66645 
 C                    -1.1219    0.90794  -2.1563 
 C                     0.00703   0.60883  -1.51687 
 H                     0.79066   1.34719  -1.43608 
 C                    -1.30294   2.2796   -2.69985 
 O                    -0.63963   3.22756  -2.33047 
 N                    -2.38956   2.44468  -3.59572 
 H                    -2.27975   3.32476  -4.11045 
 H                    -2.4634    1.66851  -4.25713 
 C                     0.52698   2.09038   3.7584 
 C                    -1.1206    2.20521   1.61041 
 C                    -1.87935   2.9749    0.62348 
 C                    -3.85532   3.36886  -0.80932 
 C                    -3.02289   2.56899   0.10933 
 O                    -1.21664   1.00406   1.83058 
 S                    -0.09362   3.24674   2.52796 
 H                    -0.32742   1.62913   4.25713 
 H                     1.10502   1.3159    3.25544 
 H                    -4.13589   2.77595  -1.67626 
 H                    -3.31645   4.25137  -1.14134 
 H                    -4.7719    3.67752  -0.30438 
 H                    -3.41997   1.60287   0.40552 
 H                    -1.4631    3.93317   0.34946 
 H                     2.54198  -4.37426  -0.28822 
 H                     1.15752   2.58885   4.49464 
 
 ITRead=  0  0  0  0  0  0  0  0  0  0  0  0  0  0  0  0  0  0  0  0
 ITRead=  0  0  0  0  0  0  0  0  0  0  0  0  0  0  0  0  0  0  0  0
 ITRead=  0  0  0  0  0  0  0  0
 MicOpt= -1 -1 -1 -1 -1 -1 -1 -1 -1 -1 -1 -1 -1 -1 -1 -1 -1 -1 -1 -1
 MicOpt= -1 -1 -1 -1 -1 -1 -1 -1 -1 -1 -1 -1 -1 -1 -1 -1 -1 -1 -1 -1
 MicOpt= -1 -1 -1 -1 -1 -1 -1 -1
 NAtoms=     48 NQM=       48 NQMF=       0 NMMI=      0 NMMIF=      0
                NMic=       0 NMicF=      0.
                    Isotopes and Nuclear Properties:
 (Nuclear quadrupole moments (NQMom) in fm**2, nuclear magnetic moments (NMagM)
  in nuclear magnetons)

  Atom         1           2           3           4           5           6           7           8           9          10
 IAtWgt=          12           1           1          12           1          16           1          12           1          16
 AtmWgt=  12.0000000   1.0078250   1.0078250  12.0000000   1.0078250  15.9949146   1.0078250  12.0000000   1.0078250  15.9949146
 NucSpn=           0           1           1           0           1           0           1           0           1           0
 AtZEff=  -0.0000000  -0.0000000  -0.0000000  -0.0000000  -0.0000000  -0.0000000  -0.0000000  -0.0000000  -0.0000000  -0.0000000
 NQMom=    0.0000000   0.0000000   0.0000000   0.0000000   0.0000000   0.0000000   0.0000000   0.0000000   0.0000000   0.0000000
 NMagM=    0.0000000   2.7928460   2.7928460   0.0000000   2.7928460   0.0000000   2.7928460   0.0000000   2.7928460   0.0000000
 AtZNuc=   6.0000000   1.0000000   1.0000000   6.0000000   1.0000000   8.0000000   1.0000000   6.0000000   1.0000000   8.0000000

  Atom        11          12          13          14          15          16          17          18          19          20
 IAtWgt=           1          12           1          12           1          16          14          12           1          12
 AtmWgt=   1.0078250  12.0000000   1.0078250  12.0000000   1.0078250  15.9949146  14.0030740  12.0000000   1.0078250  12.0000000
 NucSpn=           1           0           1           0           1           0           2           0           1           0
 AtZEff=  -0.0000000  -0.0000000  -0.0000000  -0.0000000  -0.0000000  -0.0000000  -0.0000000  -0.0000000  -0.0000000  -0.0000000
 NQMom=    0.0000000   0.0000000   0.0000000   0.0000000   0.0000000   0.0000000   2.0440000   0.0000000   0.0000000   0.0000000
 NMagM=    2.7928460   0.0000000   2.7928460   0.0000000   2.7928460   0.0000000   0.4037610   0.0000000   2.7928460   0.0000000
 AtZNuc=   1.0000000   6.0000000   1.0000000   6.0000000   1.0000000   8.0000000   7.0000000   6.0000000   1.0000000   6.0000000

  Atom        21          22          23          24          25          26          27          28          29          30
 IAtWgt=           1          12           1           1          12          12           1          12          16          14
 AtmWgt=   1.0078250  12.0000000   1.0078250   1.0078250  12.0000000  12.0000000   1.0078250  12.0000000  15.9949146  14.0030740
 NucSpn=           1           0           1           1           0           0           1           0           0           2
 AtZEff=  -0.0000000  -0.0000000  -0.0000000  -0.0000000  -0.0000000  -0.0000000  -0.0000000  -0.0000000  -0.0000000  -0.0000000
 NQMom=    0.0000000   0.0000000   0.0000000   0.0000000   0.0000000   0.0000000   0.0000000   0.0000000   0.0000000   2.0440000
 NMagM=    2.7928460   0.0000000   2.7928460   2.7928460   0.0000000   0.0000000   2.7928460   0.0000000   0.0000000   0.4037610
 AtZNuc=   1.0000000   6.0000000   1.0000000   1.0000000   6.0000000   6.0000000   1.0000000   6.0000000   8.0000000   7.0000000

  Atom        31          32          33          34          35          36          37          38          39          40
 IAtWgt=           1           1          12          12          12          12          12          16          32           1
 AtmWgt=   1.0078250   1.0078250  12.0000000  12.0000000  12.0000000  12.0000000  12.0000000  15.9949146  31.9720718   1.0078250
 NucSpn=           1           1           0           0           0           0           0           0           0           1
 AtZEff=  -0.0000000  -0.0000000  -0.0000000  -0.0000000  -0.0000000  -0.0000000  -0.0000000  -0.0000000  -0.0000000  -0.0000000
 NQMom=    0.0000000   0.0000000   0.0000000   0.0000000   0.0000000   0.0000000   0.0000000   0.0000000   0.0000000   0.0000000
 NMagM=    2.7928460   2.7928460   0.0000000   0.0000000   0.0000000   0.0000000   0.0000000   0.0000000   0.0000000   2.7928460
 AtZNuc=   1.0000000   1.0000000   6.0000000   6.0000000   6.0000000   6.0000000   6.0000000   8.0000000  16.0000000   1.0000000

  Atom        41          42          43          44          45          46          47          48
 IAtWgt=           1           1           1           1           1           1           1           1
 AtmWgt=   1.0078250   1.0078250   1.0078250   1.0078250   1.0078250   1.0078250   1.0078250   1.0078250
 NucSpn=           1           1           1           1           1           1           1           1
 AtZEff=  -0.0000000  -0.0000000  -0.0000000  -0.0000000  -0.0000000  -0.0000000  -0.0000000  -0.0000000
 NQMom=    0.0000000   0.0000000   0.0000000   0.0000000   0.0000000   0.0000000   0.0000000   0.0000000
 NMagM=    2.7928460   2.7928460   2.7928460   2.7928460   2.7928460   2.7928460   2.7928460   2.7928460
 AtZNuc=   1.0000000   1.0000000   1.0000000   1.0000000   1.0000000   1.0000000   1.0000000   1.0000000
 Background charge distribution read from input stream:
 Leave Link  101 at Sun Apr  9 09:29:07 2023, MaxMem=  2684354560 cpu:               2.3 elap:               0.2
 (Enter /opt/gaussian/g16/l103.exe)

 GradGradGradGradGradGradGradGradGradGradGradGradGradGradGradGradGradGrad
 Berny optimization.
 Initialization pass.
 Trust Radius=3.00D-01 FncErr=1.00D-07 GrdErr=1.00D-07 EigMax=2.50D+02 EigMin=1.00D-04
 Number of steps in this run=      2 maximum allowed number of steps=      2.
 GradGradGradGradGradGradGradGradGradGradGradGradGradGradGradGradGradGrad

 Leave Link  103 at Sun Apr  9 09:29:07 2023, MaxMem=  2684354560 cpu:               0.2 elap:               0.0
 (Enter /opt/gaussian/g16/l202.exe)
 ---------------------------------------------------------------------------------------------------
                            Z-MATRIX (ANGSTROMS AND DEGREES)
   CD    Cent   Atom    N1       Length/X        N2       Alpha/Y        N3        Beta/Z          J
 ---------------------------------------------------------------------------------------------------
      1      1  C        0   3.432014         -3.874594         -0.670660
      2      2  H        0   3.510328         -4.026343         -1.743545
      3      3  H        0   4.325492         -4.251367         -0.180018
      4      4  C        0   1.614871         -1.540577          1.043303
      5      5  H        0   0.960867         -2.432950          1.036115
      6      6  O        0   1.312313         -0.699921          2.125978
      7      7  H        0   0.414162         -0.365850          2.011072
      8      8  C        0   3.085918         -1.999153          1.081362
      9      9  H        0   3.212366         -2.871811          1.742500
     10     10  O        0   3.849176         -0.904270          1.520746
     11     11  H        0   4.771896         -1.179495          1.567270
     12     12  C        0   1.572238         -0.884970         -0.359047
     13     13  H        0   2.091631          0.082752         -0.274220
     14     14  C        0   3.350931         -2.375078         -0.411658
     15     15  H        0   4.302644         -1.921824         -0.723026
     16     16  O        0   2.291273         -1.783368         -1.183568
     17     17  N        0   0.248256         -0.615173         -0.913552
     18     18  C        0  -0.664713         -1.649810         -1.153841
     19     19  H        0  -0.371258         -2.635931         -0.824913
     20     20  C        0  -1.820092         -1.435342         -1.747488
     21     21  H        0  -2.508797         -2.247674         -1.913770
     22     22  C        0  -2.245544         -0.088579         -2.248035
     23     23  H        0  -2.593055         -0.203897         -3.277323
     24     24  H        0  -3.102642          0.279516         -1.666451
     25     25  C        0  -1.121898          0.907941         -2.156296
     26     26  C        0   0.007027          0.608834         -1.516869
     27     27  H        0   0.790658          1.347190         -1.436076
     28     28  C        0  -1.302938          2.279601         -2.699846
     29     29  O        0  -0.639633          3.227564         -2.330470
     30     30  N        0  -2.389557          2.444679         -3.595716
     31     31  H        0  -2.279754          3.324764         -4.110446
     32     32  H        0  -2.463405          1.668511         -4.257134
     33     33  C        0   0.526980          2.090381          3.758405
     34     34  C        0  -1.120604          2.205215          1.610408
     35     35  C        0  -1.879354          2.974898          0.623484
     36     36  C        0  -3.855316          3.368858         -0.809317
     37     37  C        0  -3.022890          2.568985          0.109330
     38     38  O        0  -1.216641          1.004057          1.830579
     39     39  S        0  -0.093616          3.246744          2.527960
     40     40  H        0  -0.327416          1.629130          4.257134
     41     41  H        0   1.105024          1.315896          3.255436
     42     42  H        0  -4.135891          2.775946         -1.676263
     43     43  H        0  -3.316449          4.251367         -1.141337
     44     44  H        0  -4.771896          3.677516         -0.304385
     45     45  H        0  -3.419968          1.602870          0.405520
     46     46  H        0  -1.463103          3.933173          0.349459
     47     47  H        0   2.541975         -4.374263         -0.288216
     48     48  H        0   1.157516          2.588854          4.494643
 ---------------------------------------------------------------------------------------------------
                         Z-Matrix orientation:                         
 ---------------------------------------------------------------------
 Center     Atomic      Atomic             Coordinates (Angstroms)
 Number     Number       Type             X           Y           Z
 ---------------------------------------------------------------------
      1          6           0        3.432014   -3.874594   -0.670660
      2          1           0        3.510328   -4.026343   -1.743545
      3          1           0        4.325492   -4.251367   -0.180018
      4          6           0        1.614871   -1.540577    1.043303
      5          1           0        0.960867   -2.432950    1.036115
      6          8           0        1.312313   -0.699921    2.125978
      7          1           0        0.414162   -0.365850    2.011072
      8          6           0        3.085918   -1.999153    1.081362
      9          1           0        3.212366   -2.871811    1.742500
     10          8           0        3.849176   -0.904270    1.520746
     11          1           0        4.771896   -1.179495    1.567270
     12          6           0        1.572238   -0.884970   -0.359047
     13          1           0        2.091631    0.082752   -0.274220
     14          6           0        3.350931   -2.375078   -0.411658
     15          1           0        4.302644   -1.921824   -0.723026
     16          8           0        2.291273   -1.783368   -1.183568
     17          7           0        0.248256   -0.615173   -0.913552
     18          6           0       -0.664713   -1.649810   -1.153841
     19          1           0       -0.371258   -2.635931   -0.824913
     20          6           0       -1.820092   -1.435342   -1.747488
     21          1           0       -2.508797   -2.247674   -1.913770
     22          6           0       -2.245544   -0.088579   -2.248035
     23          1           0       -2.593055   -0.203897   -3.277323
     24          1           0       -3.102642    0.279516   -1.666451
     25          6           0       -1.121898    0.907941   -2.156296
     26          6           0        0.007027    0.608834   -1.516869
     27          1           0        0.790658    1.347190   -1.436076
     28          6           0       -1.302938    2.279601   -2.699846
     29          8           0       -0.639633    3.227564   -2.330470
     30          7           0       -2.389557    2.444679   -3.595716
     31          1           0       -2.279754    3.324764   -4.110446
     32          1           0       -2.463405    1.668511   -4.257134
     33          6           0        0.526980    2.090381    3.758405
     34          6           0       -1.120604    2.205215    1.610408
     35          6           0       -1.879354    2.974898    0.623484
     36          6           0       -3.855316    3.368858   -0.809317
     37          6           0       -3.022890    2.568985    0.109330
     38          8           0       -1.216641    1.004057    1.830579
     39         16           0       -0.093616    3.246744    2.527960
     40          1           0       -0.327416    1.629130    4.257134
     41          1           0        1.105024    1.315896    3.255436
     42          1           0       -4.135891    2.775946   -1.676263
     43          1           0       -3.316449    4.251367   -1.141337
     44          1           0       -4.771896    3.677516   -0.304385
     45          1           0       -3.419968    1.602870    0.405520
     46          1           0       -1.463103    3.933173    0.349459
     47          1           0        2.541975   -4.374263   -0.288216
     48          1           0        1.157516    2.588854    4.494643
 ---------------------------------------------------------------------
                    Distance matrix (angstroms):
                    1          2          3          4          5
     1  C    0.000000
     2  H    1.086390   0.000000
     3  H    1.086734   1.777568   0.000000
     4  C    3.418671   4.187877   4.023974   0.000000
     5  H    3.331363   4.094528   4.013268   1.106392   0.000000
     6  O    4.732110   5.556039   5.197080   1.403720   2.077187
     7  H    5.348870   6.089549   5.932675   1.938625   2.349965
     8  C    2.589719   3.502817   2.863581   1.541337   2.169347
     9  H    2.622434   3.684323   2.615014   2.193867   2.400172
    10  O    3.714716   4.529653   3.784513   2.371699   3.303643
    11  H    3.750623   4.545063   3.562119   3.220517   4.046877
    12  C    3.534645   3.942239   4.352595   1.548620   2.171749
    13  H    4.196949   4.588712   4.876843   2.144379   3.053581
    14  C    1.523879   2.127442   2.126943   2.413961   2.794960
    15  H    2.138703   2.469458   2.392101   3.238733   3.810945
    16  O    2.436718   2.613543   3.352041   2.339961   2.668131
    17  N    4.562799   4.792294   5.512153   2.559939   2.759226
    18  C    4.686822   4.840106   5.711268   3.167945   2.837556
    19  H    4.002869   4.224197   5.008491   2.938492   2.297647
    20  C    5.890172   5.926776   6.939393   4.427026   4.059236
    21  H    6.283743   6.278734   7.329952   5.123368   4.557929
    22  C    7.004048   6.992178   8.048852   5.276742   5.153910
    23  H    7.521314   7.363073   8.593114   6.177472   6.017041
    24  H    7.807046   7.891624   8.826979   5.736761   5.583318
    25  C    6.768890   6.780489   7.758750   4.870583   5.068624
    26  C    5.705062   5.814582   6.637610   3.709395   4.084114
    27  H    5.901666   6.030423   6.739182   3.894335   4.519973
    28  C    8.025677   7.990430   8.982333   6.092498   6.425757
    29  O    8.353079   8.377698   9.230998   6.261014   6.777678
    30  N    9.076335   8.950604  10.079480   7.310144   7.514684
    31  H    9.812603   9.652256  10.792373   8.087075   8.374962
    32  H    8.851259   8.627571   9.887212   7.417898   7.521044
    33  C    7.977265   8.751350   8.376015   4.662525   5.297135
    34  C    7.930553   8.457354   8.634410   4.672835   5.116142
    35  C    8.763617   9.147069   9.558485   5.724977   6.122249
    36  C   10.275797  10.479241  11.197744   7.580085   7.762874
    37  C    9.153900   9.466490  10.029938   6.266549   6.461316
    38  O    7.188006   7.773257   7.897926   3.887471   4.145568
    39  S    8.565903   9.172348   9.115006   5.295430   5.966277
    40  H    8.288996   9.095098   8.713101   4.914086   5.341829
    41  H    6.911607   7.701612   7.291652   3.648687   4.358901
    42  H   10.124925  10.234272  11.100310   7.687631   7.776023
    43  H   10.573294  10.746535  11.472571   7.914366   8.229023
    44  H   11.156732  11.402449  12.068352   8.356766   8.485240
    45  H    8.838011   9.183438   9.726619   5.969726   5.989759
    46  H    9.271680   9.616111  10.038669   6.318013   6.846507
    47  H    1.090000   1.782340   1.791018   3.265309   2.832393
    48  H    8.580784   9.392100   8.870014   5.401215   6.100706
                    6          7          8          9         10
     6  O    0.000000
     7  H    0.965133   0.000000
     8  C    2.434112   3.266546   0.000000
     9  H    2.911077   3.765889   1.102101   0.000000
    10  O    2.616054   3.511358   1.405130   2.079885   0.000000
    11  H    3.537069   4.455202   1.936612   2.307980   0.964015
    12  C    2.505425   2.688512   2.367996   3.324764   2.952700
    13  H    2.642132   2.870141   2.675918   3.748687   2.699088
    14  C    3.660835   4.304792   1.562262   2.215027   2.479054
    15  H    4.307198   5.001665   2.177664   2.858322   2.505108
    16  O    3.617362   3.967194   2.409965   3.254995   3.242405
    17  N    3.221512   2.939917   3.734623   4.575257   4.356146
    18  C    3.945647   3.581788   4.380115   4.991375   5.299475
    19  H    3.910282   3.716580   3.998929   4.414704   5.129603
    20  C    5.035528   4.501387   5.691152   6.290397   6.565363
    21  H    5.772000   5.243028   6.350859   6.818326   7.350133
    22  C    5.671337   5.029007   6.569601   7.311603   7.212119
    23  H    6.685327   6.085779   7.380502   8.125226   8.063146
    24  H    5.902003   5.129189   7.144304   7.837802   7.738691
    25  C    5.181551   4.620496   6.053044   6.947876   6.443316
    26  C    4.084966   3.682681   4.799163   5.745657   5.126275
    27  H    4.141378   3.867698   4.775324   5.811023   4.813149
    28  C    6.245451   5.669179   7.201897   8.164524   7.382053
    29  O    6.252612   5.733420   7.269037   8.284284   7.214799
    30  N    7.505340   6.869934   8.461887   9.388459   8.735871
    31  H    8.245848   7.638770   9.170027  10.139917   9.335890
    32  H    7.785219   7.190927   8.529143   9.424676   8.935982
    33  C    3.326762   3.016449   5.517156   5.991537   5.001203
    34  C    3.824226   3.020995   5.970881   6.675947   5.863075
    35  C    5.093968   4.283247   7.043064   7.833378   6.976322
    36  C    7.202451   6.334909   8.976131   9.767796   9.113068
    37  C    5.791943   4.903387   7.689621   8.434923   7.828211
    38  O    3.063725   2.137461   5.300246   5.886104   5.422196
    39  S    4.208846   3.684541   6.302500   6.998799   5.813003
    40  H    3.557389   3.094297   5.907691   6.253952   5.599094
    41  H    2.319949   2.203180   4.431714   4.926130   3.933021
    42  H    7.498107   6.646074   9.086285   9.878359   9.355541
    43  H    7.524363   6.721148   9.219528  10.083730   9.220274
    44  H    7.879480   6.971753   9.792349  10.527671   9.932106
    45  H    5.536904   4.599370   7.467120   8.111606   7.769809
    46  H    5.685465   4.976613   7.511442   8.373075   7.279634
    47  H    4.565215   5.087405   2.795133   2.613540   4.125769
    48  H    4.055931   3.930773   6.034818   6.451013   5.318929
                   11         12         13         14         15
    11  H    0.000000
    12  C    3.746365   0.000000
    13  H    3.488291   1.101567   0.000000
    14  C    2.713801   2.320977   2.765077   0.000000
    15  H    2.452898   2.943240   3.018002   1.099157   0.000000
    16  O    3.753034   1.415614   2.085467   1.438347   2.068063
    17  N    5.190015   1.460546   2.072167   3.602188   4.264001
    18  C    6.097734   2.494119   3.372378   4.147559   4.993419
    19  H    5.856259   2.657080   3.709491   3.754133   4.729238
    20  C    7.382912   3.706560   4.447101   5.422825   6.226885
    21  H    8.140463   4.574820   5.411372   6.050536   6.922412
    22  C    8.061706   4.333356   4.768268   6.318298   6.968874
    23  H    8.869294   5.131263   5.571990   6.946728   7.551581
    24  H    8.636783   4.991978   5.381217   7.090133   7.782944
    25  C    7.277303   3.701757   3.814435   5.816199   6.283908
    26  C    5.950967   2.453954   2.483247   4.615942   5.048440
    27  H    5.590571   2.598730   2.154355   4.632463   4.850665
    28  C    8.190069   4.874473   4.715178   6.968525   7.278897
    29  O    7.993697   5.068710   4.645192   7.141151   7.316159
    30  N    9.543452   6.103967   6.057399   8.143801   8.491423
    31  H   10.111903   6.828814   6.658550   8.824616   9.073548
    32  H    9.715163   6.164557   6.255125   8.058834   8.435630
    33  C    5.788996   5.186395   4.768728   6.730858   7.101877
    34  C    6.795563   4.547460   4.286621   6.712858   7.203401
    35  C    7.898660   5.270431   4.993906   7.553121   8.000505
    36  C   10.038150   6.910582   6.815497   9.223932   9.723738
    37  C    8.771282   5.767529   5.699719   8.083365   8.632708
    38  O    6.379640   4.017554   4.027859   6.108101   6.748644
    39  S    6.647385   5.308573   4.757979   7.218805   7.523969
    40  H    6.413012   5.589143   5.364349   7.166697   7.671293
    41  H    4.745823   4.257534   3.866848   5.667007   6.044483
    42  H   10.272034   6.907974   6.928279   9.175226   9.704977
    43  H   10.111980   7.133947   6.883064   9.428476   9.814982
    44  H   10.870952   7.814557   7.747983  10.130435  10.671230
    45  H    8.729138   5.629924   5.757650   7.895374   8.563635
    46  H    8.154609   5.738448   5.277391   7.971716   8.287042
    47  H    4.315312   3.622232   4.479730   2.160183   3.050159
    48  H    5.986126   5.983123   5.467648   7.315974   7.580378
                   16         17         18         19         20
    16  O    0.000000
    17  N    2.368861   0.000000
    18  C    2.959151   1.400616   0.000000
    19  H    2.818611   2.115447   1.080160   0.000000
    20  C    4.164427   2.376172   1.316554   2.095634   0.000000
    21  H    4.877442   3.356611   2.082205   2.430108   1.077890
    22  C    4.958639   2.877009   2.476636   3.468029   1.498442
    23  H    5.543933   3.718818   3.212217   4.106761   2.110527
    24  H    5.795083   3.549062   3.150963   4.082705   2.142951
    25  C    4.454108   2.396166   2.784964   3.859414   2.479027
    26  C    3.324379   1.385777   2.384218   3.339222   2.751401
    27  H    3.480804   2.101928   3.343616   4.193903   3.828247
    28  C    5.632510   3.738551   4.270566   5.342832   3.869785
    29  O    5.917350   4.190780   5.017356   6.059646   4.845209
    30  N    6.753148   4.849202   5.069781   6.128906   4.335297
    31  H    7.453450   5.668693   6.008016   7.068732   5.334180
    32  H    6.630930   4.873178   4.886407   5.889435   4.043029
    33  C    6.522403   5.406004   6.288030   6.644671   6.946533
    34  C    5.946090   4.024765   4.765514   5.470740   5.001840
    35  C    6.580323   4.447225   5.101192   5.987788   5.007518
    36  C    8.029075   5.720373   5.956985   6.942362   5.301192
    37  C    6.989627   4.678199   4.995481   5.915667   4.574837
    38  O    5.400026   3.506862   4.031675   4.584302   4.372343
    39  S    6.690677   5.184138   6.152890   6.776777   6.571309
    40  H    6.935698   5.666065   6.335920   6.634748   6.904677
    41  H    5.542326   4.673707   5.600813   5.869037   6.415206
    42  H    7.895475   5.594833   5.648833   6.647230   4.806552
    43  H    8.238104   6.036739   6.469602   7.497276   5.911443
    44  H    8.971207   6.633264   6.780186   7.713376   6.077582
    45  H    6.827158   4.485035   4.539049   5.364330   4.052873
    46  H    7.008876   5.021096   5.836698   6.761983   5.774564
    47  H    2.752679   4.447802   4.295905   3.434642   5.458421
    48  H    7.255605   6.351466   7.293296   7.611387   8.001532
                   21         22         23         24         25
    21  H    0.000000
    22  C    2.200620   0.000000
    23  H    2.458333   1.092472   0.000000
    24  H    2.607778   1.099251   1.757349   0.000000
    25  C    3.455462   1.504675   2.158052   2.134998   0.000000
    26  C    3.827079   2.468818   3.243478   3.130634   1.331467
    27  H    4.902820   3.455319   4.152779   4.043610   2.090341
    28  C    4.750603   2.588612   2.857559   2.882218   1.486497
    29  O    5.800487   3.685451   4.060457   3.898503   2.375619
    30  N    4.986115   2.873044   2.675395   2.986383   2.457734
    31  H    5.994157   3.888529   3.639190   3.990463   3.316680
    32  H    4.563981   2.677930   2.117252   3.008251   2.606075
    33  C    7.759396   6.965060   8.031176   6.773658   6.253051
    34  C    5.845949   4.627586   5.644629   4.286559   3.983840
    35  C    5.840301   4.214808   5.082361   3.742368   3.545875
    36  C    5.880337   4.076168   4.522050   3.293210   3.916892
    37  C    5.249517   3.636493   4.398073   2.898521   3.392035
    38  O    5.124800   4.345985   5.426263   4.038710   3.989159
    39  S    7.466639   6.210096   7.201071   5.954138   5.335693
    40  H    7.607108   6.996211   8.078437   6.679237   6.502570
    41  H    7.244269   6.594471   7.659145   6.557706   5.866213
    42  H    5.285887   3.479345   3.717956   2.701826   3.578272
    43  H    6.594428   4.605078   4.993506   4.012114   4.126099
    44  H    6.543670   4.933933   5.352669   4.023436   4.941923
    45  H    4.586505   3.358813   4.184677   2.478916   3.510977
    46  H    6.664725   4.851152   5.616555   4.483436   3.943002
    47  H    5.716214   6.717761   7.259149   7.444386   6.694428
    48  H    8.826190   8.013312   9.070265   7.838436   7.228845
                   26         27         28         29         30
    26  C    0.000000
    27  H    1.079710   0.000000
    28  C    2.430412   2.617183   0.000000
    29  O    2.817422   2.526159   1.214514   0.000000
    30  N    3.665453   3.997786   1.417948   2.296953   0.000000
    31  H    4.396850   4.526642   2.009062   2.422346   1.025453
    32  H    3.838620   4.318627   2.035992   3.077145   1.022430
    33  C    5.503985   5.253997   6.715162   6.303060   7.919268
    34  C    3.687797   3.697322   4.314749   4.099640   5.363890
    35  C    3.706454   3.744353   3.443866   3.213502   4.282883
    36  C    4.799589   5.105393   3.357858   3.560125   3.281246
    37  C    3.958171   4.292343   3.306576   3.473653   3.760842
    38  O    3.585942   3.849419   4.707357   4.753026   5.735487
    39  S    4.830046   4.483729   5.452318   4.889054   6.588935
    40  H    5.872987   5.808806   7.055092   6.785942   8.159952
    41  H    4.947771   4.702137   6.495567   6.156351   7.773323
    42  H    4.678199   5.135164   3.052819   3.585494   2.616051
    43  H    4.945156   5.038794   3.220409   3.102830   3.185471
    44  H    5.807325   6.136216   4.441404   4.624184   4.245973
    45  H    4.053145   4.602849   3.818780   4.225582   4.216667
    46  H    4.086037   3.867154   3.472494   2.891022   4.317215
    47  H    5.724229   6.092595   8.054391   8.490065   9.041987
    48  H    6.432915   6.070399   7.609871   7.086598   8.834956
                   31         32         33         34         35
    31  H    0.000000
    32  H    1.672847   0.000000
    33  C    8.445133   8.565584   0.000000
    34  C    5.943500   6.043113   2.709541   0.000000
    35  C    4.763698   5.086079   4.049758   1.463602   0.000000
    36  C    3.658114   4.088526   6.457793   3.832464   2.472357
    37  C    4.350858   4.493316   5.113354   2.450358   1.317876
    38  O    6.466195   6.249494   2.817237   1.224940   2.404263
    39  S    6.989544   7.358276   1.798975   1.726670   2.624841
    40  H    8.758037   8.778199   1.091547   2.822443   4.174089
    41  H    8.351557   8.324466   1.089467   2.906962   4.311145
    42  H    3.109935   3.268719   7.193606   4.496653   3.228061
    43  H    3.278557   4.136063   6.591607   4.071925   2.609447
    44  H    4.563037   4.998946   6.863187   4.377903   3.117918
    45  H    4.965779   4.760218   5.201721   2.664892   2.074479
    46  H    4.574695   5.229723   4.356286   2.166365   1.080114
    47  H    9.855634   8.793250   7.888407   7.765873   8.624935
    48  H    9.295373   9.515866   1.090000   3.695379   4.935330
                   36         37         38         39         40
    36  C    0.000000
    37  C    1.475344   0.000000
    38  O    4.418590   2.945206   0.000000
    39  S    5.030180   3.858727   2.603300   0.000000
    40  H    6.414176   5.035195   2.658874   2.379366   0.000000
    41  H    6.733635   5.339278   2.741823   2.386238   1.775781
    42  H    1.087135   2.114224   4.894849   5.851250   7.143169
    43  H    1.086019   2.116779   4.877141   4.985947   6.704770
    44  H    1.091029   2.111639   4.934094   5.485804   6.690048
    45  H    2.187251   1.085715   2.691472   4.274540   4.939585
    46  H    2.717332   2.086051   3.291532   2.663183   4.676358
    47  H   10.057474   8.906989   6.895130   8.541483   8.058185
    48  H    7.339543   6.058644   3.904542   2.421982   1.783957
                   41         42         43         44         45
    41  H    0.000000
    42  H    7.343064   0.000000
    43  H    6.891882   1.770451   0.000000
    44  H    7.265519   1.760505   1.774294   0.000000
    45  H    5.355365   2.494488   3.068879   2.576010   0.000000
    46  H    4.678688   3.547748   2.399711   3.382452   3.043481
    47  H    6.855670   9.881602  10.461856  10.877688   8.470665
    48  H    1.777304   8.132358   7.385432   7.705439   6.216628
                   46         47         48
    46  H    0.000000
    47  H    9.244500   0.000000
    48  H    5.085017   8.560226   0.000000
 Symmetry turned off by external request.
 Stoichiometry    C16H24N2O5S
 Framework group  C1[X(C16H24N2O5S)]
 Deg. of freedom   138
 Full point group                 C1      NOp   1
 Rotational constants (GHZ):           0.2819984           0.1624711           0.1186562
 Leave Link  202 at Sun Apr  9 09:29:07 2023, MaxMem=  2684354560 cpu:               0.0 elap:               0.0
 (Enter /opt/gaussian/g16/l301.exe)
 Standard basis: def2TZVP (5D, 7F)
 Ernie: Thresh=  0.10000D-02 Tol=  0.10000D-05 Strict=F.
   894 basis functions,  1434 primitive gaussians,  1014 cartesian basis functions
    95 alpha electrons       95 beta electrons
       nuclear repulsion energy      2402.7714576185 Hartrees.
 IExCor= 4336 DFT=T Ex+Corr=M062X ExCW=0 ScaHFX=  0.540000
 ScaDFX=  1.000000  1.000000  1.000000  1.000000 ScalE2=  1.000000  1.000000
 IRadAn=      5 IRanWt=     -1 IRanGd=            0 ICorTp=0 IEmpDi=131
 NAtoms=   48 NActive=   48 NUniq=   48 SFac= 1.00D+00 NAtFMM=   60 NAOKFM=F Big=F
 Integral buffers will be    131072 words long.
 Raffenetti 2 integral format.
 Two-electron integral symmetry is turned off.
 R6Disp:  Grimme-D3 Dispersion energy=       -0.0041435790 Hartrees.
 Nuclear repulsion after empirical dispersion term =     2402.7673140395 Hartrees.
 Leave Link  301 at Sun Apr  9 09:29:07 2023, MaxMem=  2684354560 cpu:               0.6 elap:               0.0
 (Enter /opt/gaussian/g16/l302.exe)
 NPDir=0 NMtPBC=     1 NCelOv=     1 NCel=       1 NClECP=     1 NCelD=      1
         NCelK=      1 NCelE2=     1 NClLst=     1 CellRange=     0.0.
 One-electron integrals computed using PRISM.
   1 Symmetry operations used in ECPInt.
 ECPInt:  NShTT=   65703 NPrTT=  200010 LenC2=   55558 LenP2D=  117219.
 LDataN:  DoStor=T MaxTD1= 6 Len=  172
 NBasis=   894 RedAO= T EigKep=  3.39D-05  NBF=   894
 NBsUse=   894 1.00D-06 EigRej= -1.00D+00 NBFU=   894
 Precomputing XC quadrature grid using
 IXCGrd= 4 IRadAn=           5 IRanWt=          -1 IRanGd=           0 AccXCQ= 0.00D+00.
 Generated NRdTot=       0 NPtTot=           0 NUsed=           0 NTot=          32
 NSgBfM=  1001   999  1000  1001  1001 MxSgAt=    48 MxSgA2=    48.
 Leave Link  302 at Sun Apr  9 09:29:08 2023, MaxMem=  2684354560 cpu:              17.4 elap:               1.1
 (Enter /opt/gaussian/g16/l303.exe)
 DipDrv:  MaxL=1.
 Leave Link  303 at Sun Apr  9 09:29:08 2023, MaxMem=  2684354560 cpu:               2.2 elap:               0.2
 (Enter /opt/gaussian/g16/l401.exe)
 ExpMin= 9.52D-02 ExpMax= 6.07D+04 ExpMxC= 2.07D+03 IAcc=3 IRadAn=         5 AccDes= 0.00D+00
 Harris functional with IExCor= 1009 and IRadAn=       5 diagonalized for initial guess.
 HarFok:  IExCor= 1009 AccDes= 0.00D+00 IRadAn=         5 IDoV= 1 UseB2=F ITyADJ=14
 ICtDFT=  3500011 ScaDFX=  1.000000  1.000000  1.000000  1.000000
 FoFCou: FMM=F IPFlag=           0 FMFlag=      100000 FMFlg1=           0
         NFxFlg=           0 DoJE=T BraDBF=F KetDBF=T FulRan=T
         wScrn=  0.000000 ICntrl=       500 IOpCl=  0 I1Cent=   200000004 NGrid=           0
         NMat0=    1 NMatS0=      1 NMatT0=    0 NMatD0=    1 NMtDS0=    0 NMtDT0=    0
 Symmetry not used in FoFCou.
 Harris En= -1507.24999058041    
 JPrj=0 DoOrth=F DoCkMO=F.
 Leave Link  401 at Sun Apr  9 09:29:12 2023, MaxMem=  2684354560 cpu:              55.6 elap:               3.5
 (Enter /opt/gaussian/g16/l502.exe)
 Two-electron integral symmetry not used.
 Closed shell SCF:
 Using DIIS extrapolation, IDIIS=  1040.
 NGot=  2684354560 LenX=  2682275214 LenY=  2681246004
 Requested convergence on RMS density matrix=1.00D-08 within 128 cycles.
 Requested convergence on MAX density matrix=1.00D-06.
 Requested convergence on             energy=1.00D-06.
 No special actions if energy rises.
 Fock matrices will be formed incrementally for  20 cycles.
 Integral accuracy reduced to 1.0D-05 until final iterations.

 Cycle   1  Pass 0  IDiag  1:
 FoFJK:  IHMeth= 1 ICntrl=       0 DoSepK=F KAlg= 0 I1Cent=           0 FoldK=F
 IRaf= 770000000 NMat=       1 IRICut=       1 DoRegI=T DoRafI=F ISym2E= 0 IDoP0=0 IntGTp=1.
 FoFCou: FMM=F IPFlag=           0 FMFlag=      100000 FMFlg1=           0
         NFxFlg=           0 DoJE=F BraDBF=F KetDBF=F FulRan=T
         wScrn=  0.000000 ICntrl=         0 IOpCl=  0 I1Cent=           0 NGrid=           0
         NMat0=    1 NMatS0=      1 NMatT0=    0 NMatD0=    1 NMtDS0=    0 NMtDT0=    0
 Symmetry not used in FoFCou.
 E= -1507.13292180030    
 DIIS: error= 1.49D-02 at cycle   1 NSaved=   1.
 NSaved= 1 IEnMin= 1 EnMin= -1507.13292180030     IErMin= 1 ErrMin= 1.49D-02
 ErrMax= 1.49D-02  0.00D+00 EMaxC= 1.00D-01 BMatC= 1.03D+00 BMatP= 1.03D+00
 IDIUse=3 WtCom= 8.51D-01 WtEn= 1.49D-01
 Coeff-Com:  0.100D+01
 Coeff-En:   0.100D+01
 Coeff:      0.100D+01
 Gap=     0.379 Goal=   None    Shift=    0.000
 GapD=    0.379 DampG=1.000 DampE=0.500 DampFc=0.5000 IDamp=-1.
 Damping current iteration by 5.00D-01
 RMSDP=3.75D-03 MaxDP=1.19D+00              OVMax= 2.82D-01

 Cycle   2  Pass 0  IDiag  1:
 RMSU=  1.87D-03    CP:  1.02D+00
 E= -1507.48063153881     Delta-E=       -0.347709738509 Rises=F Damp=T
 DIIS: error= 3.96D-03 at cycle   2 NSaved=   2.
 NSaved= 2 IEnMin= 2 EnMin= -1507.48063153881     IErMin= 2 ErrMin= 3.96D-03
 ErrMax= 3.96D-03  0.00D+00 EMaxC= 1.00D-01 BMatC= 9.20D-02 BMatP= 1.03D+00
 IDIUse=3 WtCom= 9.60D-01 WtEn= 3.96D-02
 Coeff-Com:  0.632D-02 0.994D+00
 Coeff-En:   0.592D-01 0.941D+00
 Coeff:      0.842D-02 0.992D+00
 Gap=     0.337 Goal=   None    Shift=    0.000
 RMSDP=1.17D-03 MaxDP=3.53D-01 DE=-3.48D-01 OVMax= 1.87D-01

 Cycle   3  Pass 0  IDiag  1:
 RMSU=  9.55D-04    CP:  9.97D-01  6.40D-01
 E= -1507.85959877016     Delta-E=       -0.378967231356 Rises=F Damp=F
 DIIS: error= 5.88D-03 at cycle   3 NSaved=   3.
 NSaved= 3 IEnMin= 3 EnMin= -1507.85959877016     IErMin= 2 ErrMin= 3.96D-03
 ErrMax= 5.88D-03  0.00D+00 EMaxC= 1.00D-01 BMatC= 5.95D-02 BMatP= 9.20D-02
 IDIUse=3 WtCom= 9.41D-01 WtEn= 5.88D-02
 Coeff-Com: -0.749D-01 0.463D+00 0.612D+00
 Coeff-En:   0.000D+00 0.000D+00 0.100D+01
 Coeff:     -0.705D-01 0.436D+00 0.635D+00
 Gap=     0.224 Goal=   None    Shift=    0.000
 RMSDP=3.67D-04 MaxDP=4.82D-02 DE=-3.79D-01 OVMax= 7.59D-02

 Cycle   4  Pass 0  IDiag  1:
 RMSU=  3.18D-04    CP:  1.00D+00  7.25D-01  9.07D-01
 E= -1507.89821251360     Delta-E=       -0.038613743443 Rises=F Damp=F
 DIIS: error= 2.68D-03 at cycle   4 NSaved=   4.
 NSaved= 4 IEnMin= 4 EnMin= -1507.89821251360     IErMin= 4 ErrMin= 2.68D-03
 ErrMax= 2.68D-03  0.00D+00 EMaxC= 1.00D-01 BMatC= 1.19D-02 BMatP= 5.95D-02
 IDIUse=3 WtCom= 9.73D-01 WtEn= 2.68D-02
 Coeff-Com: -0.342D-01 0.953D-01 0.344D+00 0.595D+00
 Coeff-En:   0.000D+00 0.000D+00 0.139D+00 0.861D+00
 Coeff:     -0.332D-01 0.928D-01 0.339D+00 0.602D+00
 Gap=     0.225 Goal=   None    Shift=    0.000
 RMSDP=1.21D-04 MaxDP=1.83D-02 DE=-3.86D-02 OVMax= 1.82D-02

 Cycle   5  Pass 0  IDiag  1:
 RMSU=  7.92D-05    CP:  1.00D+00  7.17D-01  9.38D-01  7.32D-01
 E= -1507.90692636960     Delta-E=       -0.008713855993 Rises=F Damp=F
 DIIS: error= 4.29D-04 at cycle   5 NSaved=   5.
 NSaved= 5 IEnMin= 5 EnMin= -1507.90692636960     IErMin= 5 ErrMin= 4.29D-04
 ErrMax= 4.29D-04  0.00D+00 EMaxC= 1.00D-01 BMatC= 4.87D-04 BMatP= 1.19D-02
 IDIUse=3 WtCom= 9.96D-01 WtEn= 4.29D-03
 Coeff-Com: -0.939D-02 0.151D-01 0.118D+00 0.270D+00 0.606D+00
 Coeff-En:   0.000D+00 0.000D+00 0.000D+00 0.000D+00 0.100D+01
 Coeff:     -0.935D-02 0.150D-01 0.118D+00 0.269D+00 0.608D+00
 Gap=     0.224 Goal=   None    Shift=    0.000
 RMSDP=4.85D-05 MaxDP=1.44D-02 DE=-8.71D-03 OVMax= 4.21D-03

 Cycle   6  Pass 0  IDiag  1:
 RMSU=  3.23D-05    CP:  9.99D-01  7.01D-01  9.50D-01  7.62D-01  8.68D-01
 E= -1507.90730869800     Delta-E=       -0.000382328401 Rises=F Damp=F
 DIIS: error= 1.30D-04 at cycle   6 NSaved=   6.
 NSaved= 6 IEnMin= 6 EnMin= -1507.90730869800     IErMin= 6 ErrMin= 1.30D-04
 ErrMax= 1.30D-04  0.00D+00 EMaxC= 1.00D-01 BMatC= 6.02D-05 BMatP= 4.87D-04
 IDIUse=3 WtCom= 9.99D-01 WtEn= 1.30D-03
 Coeff-Com:  0.551D-03-0.541D-02 0.103D-01 0.403D-01 0.270D+00 0.684D+00
 Coeff-En:   0.000D+00 0.000D+00 0.000D+00 0.000D+00 0.000D+00 0.100D+01
 Coeff:      0.550D-03-0.540D-02 0.102D-01 0.403D-01 0.270D+00 0.685D+00
 Gap=     0.225 Goal=   None    Shift=    0.000
 RMSDP=1.76D-05 MaxDP=9.69D-04 DE=-3.82D-04 OVMax= 2.68D-03

 Cycle   7  Pass 0  IDiag  1:
 RMSU=  1.60D-05    CP:  9.99D-01  7.00D-01  9.54D-01  7.67D-01  9.35D-01
                    CP:  9.61D-01
 E= -1507.90738095525     Delta-E=       -0.000072257251 Rises=F Damp=F
 DIIS: error= 6.21D-05 at cycle   7 NSaved=   7.
 NSaved= 7 IEnMin= 7 EnMin= -1507.90738095525     IErMin= 7 ErrMin= 6.21D-05
 ErrMax= 6.21D-05  0.00D+00 EMaxC= 1.00D-01 BMatC= 9.43D-06 BMatP= 6.02D-05
 IDIUse=1 WtCom= 1.00D+00 WtEn= 0.00D+00
 Coeff-Com:  0.178D-02-0.491D-02-0.120D-01-0.254D-01 0.139D-01 0.278D+00
 Coeff-Com:  0.748D+00
 Coeff:      0.178D-02-0.491D-02-0.120D-01-0.254D-01 0.139D-01 0.278D+00
 Coeff:      0.748D+00
 Gap=     0.226 Goal=   None    Shift=    0.000
 RMSDP=1.79D-05 MaxDP=5.61D-03 DE=-7.23D-05 OVMax= 2.17D-03

 Cycle   8  Pass 0  IDiag  1:
 RMSU=  1.11D-05    CP:  9.99D-01  6.94D-01  9.56D-01  7.71D-01  9.96D-01
                    CP:  1.14D+00  1.18D+00
 E= -1507.90739516980     Delta-E=       -0.000014214551 Rises=F Damp=F
 DIIS: error= 2.85D-05 at cycle   8 NSaved=   8.
 NSaved= 8 IEnMin= 8 EnMin= -1507.90739516980     IErMin= 8 ErrMin= 2.85D-05
 ErrMax= 2.85D-05  0.00D+00 EMaxC= 1.00D-01 BMatC= 2.12D-06 BMatP= 9.43D-06
 IDIUse=1 WtCom= 1.00D+00 WtEn= 0.00D+00
 Coeff-Com:  0.812D-03-0.140D-02-0.710D-02-0.211D-01-0.437D-01-0.169D-02
 Coeff-Com:  0.352D+00 0.722D+00
 Coeff:      0.812D-03-0.140D-02-0.710D-02-0.211D-01-0.437D-01-0.169D-02
 Coeff:      0.352D+00 0.722D+00
 Gap=     0.226 Goal=   None    Shift=    0.000
 RMSDP=1.09D-05 MaxDP=1.53D-03 DE=-1.42D-05 OVMax= 6.74D-04

 Cycle   9  Pass 0  IDiag  1:
 RMSU=  6.22D-06    CP:  9.98D-01  6.92D-01  9.58D-01  7.71D-01  1.03D+00
                    CP:  1.21D+00  1.53D+00  1.40D+00
 E= -1507.90738585937     Delta-E=        0.000009310427 Rises=F Damp=F
 DIIS: error= 1.33D-05 at cycle   9 NSaved=   9.
 NSaved= 9 IEnMin= 8 EnMin= -1507.90739516980     IErMin= 9 ErrMin= 1.33D-05
 ErrMax= 1.33D-05  0.00D+00 EMaxC= 1.00D-01 BMatC= 2.47D-07 BMatP= 2.12D-06
 IDIUse=1 WtCom= 1.00D+00 WtEn= 0.00D+00
 Coeff-Com:  0.718D-04 0.674D-04-0.568D-03-0.446D-02-0.157D-01-0.356D-01
 Coeff-Com:  0.324D-01 0.250D+00 0.773D+00
 Coeff:      0.718D-04 0.674D-04-0.568D-03-0.446D-02-0.157D-01-0.356D-01
 Coeff:      0.324D-01 0.250D+00 0.773D+00
 Gap=     0.226 Goal=   None    Shift=    0.000
 RMSDP=1.16D-05 MaxDP=2.00D-03 DE= 9.31D-06 OVMax= 2.56D-04

 Cycle  10  Pass 0  IDiag  1:
 RMSU=  4.03D-06    CP:  9.98D-01  6.90D-01  9.59D-01  7.70D-01  1.05D+00
                    CP:  1.27D+00  1.77D+00  2.00D+00  1.88D+00
 E= -1507.90736712743     Delta-E=        0.000018731942 Rises=F Damp=F
 DIIS: error= 1.61D-05 at cycle  10 NSaved=  10.
 NSaved=10 IEnMin= 8 EnMin= -1507.90739516980     IErMin= 9 ErrMin= 1.33D-05
 ErrMax= 1.61D-05  0.00D+00 EMaxC= 1.00D-01 BMatC= 1.19D-07 BMatP= 2.47D-07
 IDIUse=1 WtCom= 1.00D+00 WtEn= 0.00D+00
 Coeff-Com: -0.193D-04 0.136D-03 0.325D-03-0.825D-03-0.508D-02-0.199D-01
 Coeff-Com: -0.895D-02 0.796D-01 0.428D+00 0.527D+00
 Coeff:     -0.193D-04 0.136D-03 0.325D-03-0.825D-03-0.508D-02-0.199D-01
 Coeff:     -0.895D-02 0.796D-01 0.428D+00 0.527D+00
 Gap=     0.226 Goal=   None    Shift=    0.000
 RMSDP=9.81D-06 MaxDP=1.81D-03 DE= 1.87D-05 OVMax= 5.49D-05

 Cycle  11  Pass 0  IDiag  1:
 RMSU=  1.74D-06    CP:  9.98D-01  6.88D-01  9.59D-01  7.71D-01  1.07D+00
                    CP:  1.33D+00  1.94D+00  2.46D+00  2.69D+00  1.89D+00
 E= -1507.90734626231     Delta-E=        0.000020865120 Rises=F Damp=F
 DIIS: error= 2.09D-05 at cycle  11 NSaved=  11.
 NSaved=11 IEnMin= 8 EnMin= -1507.90739516980     IErMin= 9 ErrMin= 1.33D-05
 ErrMax= 2.09D-05  0.00D+00 EMaxC= 1.00D-01 BMatC= 1.49D-07 BMatP= 1.19D-07
 IDIUse=1 WtCom= 1.00D+00 WtEn= 0.00D+00
 Coeff-Com: -0.130D-03 0.404D-03 0.142D-02 0.101D-02-0.399D-02-0.345D-01
 Coeff-Com: -0.553D-01 0.601D-01 0.759D+00 0.171D+01-0.144D+01
 Coeff:     -0.130D-03 0.404D-03 0.142D-02 0.101D-02-0.399D-02-0.345D-01
 Coeff:     -0.553D-01 0.601D-01 0.759D+00 0.171D+01-0.144D+01
 Gap=     0.226 Goal=   None    Shift=    0.000
 RMSDP=2.31D-05 MaxDP=4.26D-03 DE= 2.09D-05 OVMax= 3.75D-05

 Cycle  12  Pass 0  IDiag  1:
 RMSU=  3.10D-06    CP:  9.98D-01  6.92D-01  9.58D-01  7.69D-01  1.03D+00
                    CP:  1.19D+00  1.56D+00  1.38D+00  8.44D-01 -2.05D-01
                    CP: -1.75D+00
 E= -1507.90738699880     Delta-E=       -0.000040736484 Rises=F Damp=F
 DIIS: error= 1.05D-05 at cycle  12 NSaved=  12.
 NSaved=12 IEnMin= 8 EnMin= -1507.90739516980     IErMin=12 ErrMin= 1.05D-05
 ErrMax= 1.05D-05  0.00D+00 EMaxC= 1.00D-01 BMatC= 5.44D-08 BMatP= 1.19D-07
 IDIUse=1 WtCom= 1.00D+00 WtEn= 0.00D+00
 Coeff-Com: -0.112D-03 0.270D-03 0.129D-02 0.213D-02 0.188D-02-0.152D-01
 Coeff-Com: -0.506D-01-0.380D-01 0.324D+00 0.130D+01-0.153D+01 0.998D+00
 Coeff:     -0.112D-03 0.270D-03 0.129D-02 0.213D-02 0.188D-02-0.152D-01
 Coeff:     -0.506D-01-0.380D-01 0.324D+00 0.130D+01-0.153D+01 0.998D+00
 Gap=     0.226 Goal=   None    Shift=    0.000
 RMSDP=1.48D-05 MaxDP=1.47D-03 DE=-4.07D-05 OVMax= 3.85D-05

 Cycle  13  Pass 0  IDiag  1:
 RMSU=  5.15D-06    CP:  9.99D-01  6.95D-01  9.57D-01  7.67D-01  1.00D+00
                    CP:  1.13D+00  1.29D+00  8.71D-01 -4.87D-01 -1.24D+00
                    CP: -3.00D+00  2.35D+00
 E= -1507.90740500994     Delta-E=       -0.000018011139 Rises=F Damp=F
 DIIS: error= 1.09D-05 at cycle  13 NSaved=  13.
 NSaved=13 IEnMin=13 EnMin= -1507.90740500994     IErMin=12 ErrMin= 1.05D-05
 ErrMax= 1.09D-05  0.00D+00 EMaxC= 1.00D-01 BMatC= 5.28D-08 BMatP= 5.44D-08
 IDIUse=1 WtCom= 1.00D+00 WtEn= 0.00D+00
 Coeff-Com: -0.114D-03 0.274D-03 0.131D-02 0.216D-02 0.192D-02-0.154D-01
 Coeff-Com: -0.514D-01-0.387D-01 0.329D+00 0.132D+01-0.155D+01 0.102D+01
 Coeff-Com: -0.160D-01
 Coeff:     -0.114D-03 0.274D-03 0.131D-02 0.216D-02 0.192D-02-0.154D-01
 Coeff:     -0.514D-01-0.387D-01 0.329D+00 0.132D+01-0.155D+01 0.102D+01
 Coeff:     -0.160D-01
 Gap=     0.226 Goal=   None    Shift=    0.000
 RMSDP=1.96D-07 MaxDP=3.52D-05 DE=-1.80D-05 OVMax= 5.92D-07

 Initial convergence to 1.0D-05 achieved.  Increase integral accuracy.
 Cycle  14  Pass 1  IDiag  1:
 E= -1507.90732312921     Delta-E=        0.000081880725 Rises=F Damp=F
 DIIS: error= 3.38D-04 at cycle   1 NSaved=   1.
 NSaved= 1 IEnMin= 1 EnMin= -1507.90732312921     IErMin= 1 ErrMin= 3.38D-04
 ErrMax= 3.38D-04  0.00D+00 EMaxC= 1.00D-01 BMatC= 7.73D-05 BMatP= 7.73D-05
 IDIUse=3 WtCom= 9.97D-01 WtEn= 3.38D-03
 Coeff-Com:  0.100D+01
 Coeff-En:   0.100D+01
 Coeff:      0.100D+01
 Gap=     0.226 Goal=   None    Shift=    0.000
 RMSDP=1.96D-07 MaxDP=3.52D-05 DE= 8.19D-05 OVMax= 9.33D-04

 Cycle  15  Pass 1  IDiag  1:
 RMSU=  3.82D-04    CP:  9.97D-01
 E= -1507.90737363004     Delta-E=       -0.000050500827 Rises=F Damp=F
 DIIS: error= 6.52D-06 at cycle   2 NSaved=   2.
 NSaved= 2 IEnMin= 2 EnMin= -1507.90737363004     IErMin= 2 ErrMin= 6.52D-06
 ErrMax= 6.52D-06  0.00D+00 EMaxC= 1.00D-01 BMatC= 5.59D-08 BMatP= 7.73D-05
 IDIUse=1 WtCom= 1.00D+00 WtEn= 0.00D+00
 Coeff-Com: -0.166D-01 0.102D+01
 Coeff:     -0.166D-01 0.102D+01
 Gap=     0.226 Goal=   None    Shift=    0.000
 RMSDP=1.38D-05 MaxDP=8.80D-04 DE=-5.05D-05 OVMax= 7.32D-05

 Cycle  16  Pass 1  IDiag  1:
 RMSU=  4.57D-06    CP:  9.97D-01  1.03D+00
 E= -1507.90737369505     Delta-E=       -0.000000065016 Rises=F Damp=F
 DIIS: error= 2.26D-06 at cycle   3 NSaved=   3.
 NSaved= 3 IEnMin= 3 EnMin= -1507.90737369505     IErMin= 3 ErrMin= 2.26D-06
 ErrMax= 2.26D-06  0.00D+00 EMaxC= 1.00D-01 BMatC= 1.64D-08 BMatP= 5.59D-08
 IDIUse=1 WtCom= 1.00D+00 WtEn= 0.00D+00
 Coeff-Com: -0.654D-02 0.379D+00 0.627D+00
 Coeff:     -0.654D-02 0.379D+00 0.627D+00
 Gap=     0.226 Goal=   None    Shift=    0.000
 RMSDP=3.84D-07 MaxDP=2.37D-05 DE=-6.50D-08 OVMax= 4.21D-05

 Cycle  17  Pass 1  IDiag  1:
 RMSU=  2.39D-07    CP:  9.97D-01  1.03D+00  1.04D+00
 E= -1507.90737370600     Delta-E=       -0.000000010949 Rises=F Damp=F
 DIIS: error= 1.19D-06 at cycle   4 NSaved=   4.
 NSaved= 4 IEnMin= 4 EnMin= -1507.90737370600     IErMin= 4 ErrMin= 1.19D-06
 ErrMax= 1.19D-06  0.00D+00 EMaxC= 1.00D-01 BMatC= 3.85D-09 BMatP= 1.64D-08
 IDIUse=1 WtCom= 1.00D+00 WtEn= 0.00D+00
 Coeff-Com: -0.214D-03 0.264D-02 0.317D+00 0.681D+00
 Coeff:     -0.214D-03 0.264D-02 0.317D+00 0.681D+00
 Gap=     0.226 Goal=   None    Shift=    0.000
 RMSDP=2.23D-07 MaxDP=2.12D-05 DE=-1.09D-08 OVMax= 2.22D-05

 Cycle  18  Pass 1  IDiag  1:
 RMSU=  1.02D-07    CP:  9.97D-01  1.03D+00  1.07D+00  1.03D+00
 E= -1507.90737370919     Delta-E=       -0.000000003189 Rises=F Damp=F
 DIIS: error= 4.56D-07 at cycle   5 NSaved=   5.
 NSaved= 5 IEnMin= 5 EnMin= -1507.90737370919     IErMin= 5 ErrMin= 4.56D-07
 ErrMax= 4.56D-07  0.00D+00 EMaxC= 1.00D-01 BMatC= 4.00D-10 BMatP= 3.85D-09
 IDIUse=1 WtCom= 1.00D+00 WtEn= 0.00D+00
 Coeff-Com:  0.364D-03-0.262D-01 0.113D+00 0.356D+00 0.557D+00
 Coeff:      0.364D-03-0.262D-01 0.113D+00 0.356D+00 0.557D+00
 Gap=     0.226 Goal=   None    Shift=    0.000
 RMSDP=4.39D-08 MaxDP=4.66D-06 DE=-3.19D-09 OVMax= 5.39D-06

 Cycle  19  Pass 1  IDiag  1:
 RMSU=  3.35D-08    CP:  9.97D-01  1.04D+00  1.07D+00  1.08D+00  1.05D+00
 E= -1507.90737370960     Delta-E=       -0.000000000411 Rises=F Damp=F
 DIIS: error= 1.34D-07 at cycle   6 NSaved=   6.
 NSaved= 6 IEnMin= 6 EnMin= -1507.90737370960     IErMin= 6 ErrMin= 1.34D-07
 ErrMax= 1.34D-07  0.00D+00 EMaxC= 1.00D-01 BMatC= 2.34D-11 BMatP= 4.00D-10
 IDIUse=1 WtCom= 1.00D+00 WtEn= 0.00D+00
 Coeff-Com:  0.170D-03-0.109D-01 0.103D-01 0.787D-01 0.219D+00 0.703D+00
 Coeff:      0.170D-03-0.109D-01 0.103D-01 0.787D-01 0.219D+00 0.703D+00
 Gap=     0.226 Goal=   None    Shift=    0.000
 RMSDP=1.34D-08 MaxDP=8.92D-07 DE=-4.11D-10 OVMax= 1.47D-06

 Cycle  20  Pass 1  IDiag  1:
 RMSU=  8.46D-09    CP:  9.97D-01  1.04D+00  1.07D+00  1.11D+00  1.12D+00
                    CP:  1.03D+00
 E= -1507.90737370963     Delta-E=       -0.000000000022 Rises=F Damp=F
 DIIS: error= 5.25D-08 at cycle   7 NSaved=   7.
 NSaved= 7 IEnMin= 7 EnMin= -1507.90737370963     IErMin= 7 ErrMin= 5.25D-08
 ErrMax= 5.25D-08  0.00D+00 EMaxC= 1.00D-01 BMatC= 5.01D-12 BMatP= 2.34D-11
 IDIUse=1 WtCom= 1.00D+00 WtEn= 0.00D+00
 Coeff-Com: -0.432D-05 0.883D-03-0.209D-01-0.381D-01-0.225D-01 0.325D+00
 Coeff-Com:  0.756D+00
 Coeff:     -0.432D-05 0.883D-03-0.209D-01-0.381D-01-0.225D-01 0.325D+00
 Coeff:      0.756D+00
 Gap=     0.226 Goal=   None    Shift=    0.000
 RMSDP=8.73D-09 MaxDP=2.09D-06 DE=-2.23D-11 OVMax= 1.15D-06

 Cycle  21  Pass 1  IDiag  1:
 RMSU=  5.31D-09    CP:  9.97D-01  1.04D+00  1.07D+00  1.12D+00  1.15D+00
                    CP:  1.14D+00  1.23D+00
 E= -1507.90737370964     Delta-E=       -0.000000000010 Rises=F Damp=F
 DIIS: error= 1.67D-08 at cycle   8 NSaved=   8.
 NSaved= 8 IEnMin= 8 EnMin= -1507.90737370964     IErMin= 8 ErrMin= 1.67D-08
 ErrMax= 1.67D-08  0.00D+00 EMaxC= 1.00D-01 BMatC= 6.41D-13 BMatP= 5.01D-12
 IDIUse=1 WtCom= 1.00D+00 WtEn= 0.00D+00
 Coeff-Com: -0.172D-04 0.137D-02-0.949D-02-0.219D-01-0.333D-01 0.643D-01
 Coeff-Com:  0.340D+00 0.659D+00
 Coeff:     -0.172D-04 0.137D-02-0.949D-02-0.219D-01-0.333D-01 0.643D-01
 Coeff:      0.340D+00 0.659D+00
 Gap=     0.226 Goal=   None    Shift=    0.000
 RMSDP=1.92D-09 MaxDP=1.53D-07 DE=-1.00D-11 OVMax= 2.92D-07

 SCF Done:  E(RM062X) =  -1507.90737371     A.U. after   21 cycles
            NFock= 21  Conv=0.19D-08     -V/T= 2.0038
 KE= 1.502146718875D+03 PE=-8.344845195461D+03 EE= 2.932023788836D+03
 Leave Link  502 at Sun Apr  9 09:48:06 2023, MaxMem=  2684354560 cpu:           18147.2 elap:            1134.6
 (Enter /opt/gaussian/g16/l601.exe)
 Copying SCF densities to generalized density rwf, IOpCl= 0 IROHF=0.

 **********************************************************************

            Population analysis using the SCF density.

 **********************************************************************

 Alpha  occ. eigenvalues --  -89.90618 -19.63981 -19.63525 -19.62425 -19.61557
 Alpha  occ. eigenvalues --  -19.59248 -14.78946 -14.76249 -10.64310 -10.64232
 Alpha  occ. eigenvalues --  -10.63184 -10.60183 -10.60000 -10.59936 -10.58174
 Alpha  occ. eigenvalues --  -10.57186 -10.55343 -10.55016 -10.54569 -10.53772
 Alpha  occ. eigenvalues --  -10.53466 -10.53404 -10.53109 -10.52623  -8.26629
 Alpha  occ. eigenvalues --   -6.18564  -6.18333  -6.18147  -1.18986  -1.16314
 Alpha  occ. eigenvalues --   -1.16047  -1.15912  -1.14253  -1.07506  -1.00172
 Alpha  occ. eigenvalues --   -0.91769  -0.91552  -0.88944  -0.88337  -0.87390
 Alpha  occ. eigenvalues --   -0.85804  -0.81445  -0.78693  -0.75124  -0.74830
 Alpha  occ. eigenvalues --   -0.72872  -0.69985  -0.68057  -0.65815  -0.65356
 Alpha  occ. eigenvalues --   -0.63493  -0.62152  -0.60828  -0.59276  -0.59020
 Alpha  occ. eigenvalues --   -0.57274  -0.56132  -0.55355  -0.55066  -0.53684
 Alpha  occ. eigenvalues --   -0.53134  -0.52642  -0.52222  -0.51003  -0.50733
 Alpha  occ. eigenvalues --   -0.50387  -0.49777  -0.49118  -0.48941  -0.48757
 Alpha  occ. eigenvalues --   -0.48288  -0.47013  -0.46826  -0.46566  -0.46170
 Alpha  occ. eigenvalues --   -0.45696  -0.44704  -0.44155  -0.43680  -0.42906
 Alpha  occ. eigenvalues --   -0.42866  -0.41832  -0.41197  -0.39903  -0.38712
 Alpha  occ. eigenvalues --   -0.36189  -0.35882  -0.35187  -0.33848  -0.33543
 Alpha  occ. eigenvalues --   -0.32612  -0.32468  -0.32094  -0.29725  -0.24513
 Alpha virt. eigenvalues --   -0.01955   0.00863   0.04830   0.05201   0.05974
 Alpha virt. eigenvalues --    0.06587   0.07145   0.08423   0.08505   0.08915
 Alpha virt. eigenvalues --    0.09371   0.10224   0.10477   0.11113   0.11449
 Alpha virt. eigenvalues --    0.11739   0.12562   0.12693   0.13222   0.13406
 Alpha virt. eigenvalues --    0.13907   0.14100   0.14453   0.15001   0.15268
 Alpha virt. eigenvalues --    0.15557   0.16212   0.16650   0.17061   0.17281
 Alpha virt. eigenvalues --    0.18265   0.18684   0.19166   0.19545   0.19848
 Alpha virt. eigenvalues --    0.20699   0.21051   0.21714   0.22191   0.22410
 Alpha virt. eigenvalues --    0.22968   0.23103   0.23902   0.24392   0.24840
 Alpha virt. eigenvalues --    0.24986   0.25148   0.25805   0.26240   0.26426
 Alpha virt. eigenvalues --    0.27128   0.27307   0.27765   0.28168   0.28749
 Alpha virt. eigenvalues --    0.29287   0.29727   0.30302   0.30775   0.31266
 Alpha virt. eigenvalues --    0.31508   0.31863   0.32558   0.32765   0.33247
 Alpha virt. eigenvalues --    0.33776   0.34000   0.34237   0.35057   0.35445
 Alpha virt. eigenvalues --    0.36571   0.36909   0.37632   0.37974   0.38482
 Alpha virt. eigenvalues --    0.38845   0.39000   0.39366   0.39979   0.40217
 Alpha virt. eigenvalues --    0.40623   0.41143   0.41702   0.41951   0.42605
 Alpha virt. eigenvalues --    0.42875   0.43121   0.43393   0.43721   0.44028
 Alpha virt. eigenvalues --    0.44346   0.44677   0.44769   0.45114   0.45434
 Alpha virt. eigenvalues --    0.45776   0.46254   0.46582   0.47070   0.47521
 Alpha virt. eigenvalues --    0.48064   0.48292   0.48875   0.49196   0.49576
 Alpha virt. eigenvalues --    0.49965   0.50238   0.50364   0.50501   0.50793
 Alpha virt. eigenvalues --    0.51292   0.51581   0.51677   0.52112   0.52473
 Alpha virt. eigenvalues --    0.53098   0.53394   0.53671   0.54333   0.54450
 Alpha virt. eigenvalues --    0.54861   0.55341   0.56163   0.56468   0.57145
 Alpha virt. eigenvalues --    0.57519   0.58329   0.58575   0.58985   0.59325
 Alpha virt. eigenvalues --    0.59644   0.60199   0.60555   0.61239   0.61519
 Alpha virt. eigenvalues --    0.62503   0.62654   0.63070   0.63557   0.64611
 Alpha virt. eigenvalues --    0.64703   0.65697   0.66200   0.66833   0.67795
 Alpha virt. eigenvalues --    0.68096   0.68258   0.69099   0.69762   0.70333
 Alpha virt. eigenvalues --    0.71403   0.71657   0.72430   0.73252   0.74022
 Alpha virt. eigenvalues --    0.74274   0.75047   0.75479   0.75699   0.77293
 Alpha virt. eigenvalues --    0.77473   0.78208   0.78898   0.79043   0.79525
 Alpha virt. eigenvalues --    0.80427   0.81685   0.82118   0.83075   0.83735
 Alpha virt. eigenvalues --    0.84263   0.84623   0.84919   0.85220   0.86442
 Alpha virt. eigenvalues --    0.87065   0.87204   0.88054   0.88873   0.89575
 Alpha virt. eigenvalues --    0.90207   0.90647   0.91697   0.92365   0.92688
 Alpha virt. eigenvalues --    0.93409   0.94392   0.95257   0.95380   0.95981
 Alpha virt. eigenvalues --    0.96321   0.97696   0.98053   0.98729   0.99233
 Alpha virt. eigenvalues --    1.00020   1.00687   1.01473   1.02521   1.03736
 Alpha virt. eigenvalues --    1.04137   1.04261   1.04635   1.05268   1.05990
 Alpha virt. eigenvalues --    1.06766   1.06909   1.08143   1.08754   1.09275
 Alpha virt. eigenvalues --    1.09438   1.10701   1.10851   1.11846   1.12548
 Alpha virt. eigenvalues --    1.12657   1.13431   1.14053   1.14571   1.15757
 Alpha virt. eigenvalues --    1.16178   1.16620   1.18041   1.18824   1.19321
 Alpha virt. eigenvalues --    1.19937   1.20730   1.21375   1.22196   1.23643
 Alpha virt. eigenvalues --    1.23984   1.24965   1.25883   1.26930   1.28258
 Alpha virt. eigenvalues --    1.28670   1.29179   1.29818   1.30712   1.32199
 Alpha virt. eigenvalues --    1.32252   1.33296   1.34015   1.34406   1.35256
 Alpha virt. eigenvalues --    1.36030   1.37098   1.37585   1.38727   1.39047
 Alpha virt. eigenvalues --    1.39954   1.41276   1.42299   1.42900   1.43781
 Alpha virt. eigenvalues --    1.45145   1.46024   1.47198   1.47928   1.49070
 Alpha virt. eigenvalues --    1.50713   1.51292   1.52051   1.53064   1.53655
 Alpha virt. eigenvalues --    1.54454   1.54752   1.54974   1.55661   1.56197
 Alpha virt. eigenvalues --    1.56564   1.56720   1.56967   1.57123   1.57605
 Alpha virt. eigenvalues --    1.58307   1.58423   1.58863   1.59393   1.60215
 Alpha virt. eigenvalues --    1.60693   1.61006   1.61598   1.62127   1.62441
 Alpha virt. eigenvalues --    1.62594   1.63507   1.63747   1.64202   1.64973
 Alpha virt. eigenvalues --    1.66231   1.66399   1.66846   1.67382   1.68097
 Alpha virt. eigenvalues --    1.68877   1.69371   1.69748   1.69892   1.70299
 Alpha virt. eigenvalues --    1.71048   1.72403   1.72461   1.73908   1.74003
 Alpha virt. eigenvalues --    1.74899   1.75344   1.75721   1.76627   1.77045
 Alpha virt. eigenvalues --    1.78135   1.78332   1.79219   1.80221   1.80477
 Alpha virt. eigenvalues --    1.81238   1.81899   1.82493   1.82797   1.83163
 Alpha virt. eigenvalues --    1.83907   1.84774   1.85425   1.85854   1.86450
 Alpha virt. eigenvalues --    1.86837   1.87929   1.88672   1.89199   1.90609
 Alpha virt. eigenvalues --    1.90833   1.91490   1.92206   1.93360   1.93847
 Alpha virt. eigenvalues --    1.94342   1.95633   1.96340   1.97263   1.97310
 Alpha virt. eigenvalues --    1.98298   1.99196   1.99438   2.00579   2.00869
 Alpha virt. eigenvalues --    2.01059   2.02348   2.03100   2.03469   2.04272
 Alpha virt. eigenvalues --    2.04939   2.06106   2.07001   2.07248   2.07397
 Alpha virt. eigenvalues --    2.08665   2.09418   2.10124   2.11000   2.11187
 Alpha virt. eigenvalues --    2.11957   2.12680   2.13587   2.14121   2.15012
 Alpha virt. eigenvalues --    2.16297   2.16509   2.17103   2.18153   2.19016
 Alpha virt. eigenvalues --    2.19934   2.20312   2.20627   2.21504   2.22887
 Alpha virt. eigenvalues --    2.23109   2.23816   2.24767   2.25549   2.26039
 Alpha virt. eigenvalues --    2.27488   2.27567   2.28151   2.29053   2.29740
 Alpha virt. eigenvalues --    2.29823   2.30622   2.31252   2.31913   2.32061
 Alpha virt. eigenvalues --    2.32624   2.33592   2.34306   2.34679   2.35831
 Alpha virt. eigenvalues --    2.36002   2.36503   2.36758   2.37576   2.38427
 Alpha virt. eigenvalues --    2.39296   2.40750   2.41104   2.42460   2.43287
 Alpha virt. eigenvalues --    2.43633   2.44716   2.44878   2.45963   2.46545
 Alpha virt. eigenvalues --    2.47331   2.48374   2.48695   2.48960   2.49782
 Alpha virt. eigenvalues --    2.50814   2.50940   2.52234   2.53114   2.53501
 Alpha virt. eigenvalues --    2.55117   2.55765   2.57091   2.57520   2.58264
 Alpha virt. eigenvalues --    2.58941   2.59220   2.59684   2.60916   2.61095
 Alpha virt. eigenvalues --    2.61669   2.62751   2.63264   2.63875   2.64244
 Alpha virt. eigenvalues --    2.64651   2.65332   2.65541   2.66558   2.67232
 Alpha virt. eigenvalues --    2.67767   2.67955   2.68514   2.69392   2.69806
 Alpha virt. eigenvalues --    2.70089   2.71234   2.71635   2.72204   2.73075
 Alpha virt. eigenvalues --    2.73704   2.74279   2.74505   2.75353   2.76826
 Alpha virt. eigenvalues --    2.78097   2.79371   2.79972   2.80278   2.80952
 Alpha virt. eigenvalues --    2.82125   2.82758   2.83359   2.84515   2.84769
 Alpha virt. eigenvalues --    2.85317   2.86080   2.87204   2.88252   2.88444
 Alpha virt. eigenvalues --    2.88795   2.89716   2.90854   2.91945   2.92834
 Alpha virt. eigenvalues --    2.94083   2.94458   2.95347   2.95957   2.96357
 Alpha virt. eigenvalues --    2.97062   2.97208   2.98863   2.99390   3.00139
 Alpha virt. eigenvalues --    3.00942   3.01268   3.02023   3.02508   3.02755
 Alpha virt. eigenvalues --    3.03199   3.03989   3.04877   3.05728   3.06693
 Alpha virt. eigenvalues --    3.06890   3.07580   3.08124   3.08930   3.09838
 Alpha virt. eigenvalues --    3.10088   3.10748   3.11115   3.11559   3.11875
 Alpha virt. eigenvalues --    3.12764   3.13218   3.13250   3.14314   3.14470
 Alpha virt. eigenvalues --    3.15257   3.16148   3.16875   3.17417   3.18020
 Alpha virt. eigenvalues --    3.18593   3.19192   3.19584   3.20322   3.20721
 Alpha virt. eigenvalues --    3.22347   3.22843   3.23775   3.24104   3.24690
 Alpha virt. eigenvalues --    3.25144   3.25403   3.26033   3.26395   3.26893
 Alpha virt. eigenvalues --    3.27418   3.27582   3.28819   3.28921   3.29814
 Alpha virt. eigenvalues --    3.30295   3.30986   3.31812   3.32045   3.33202
 Alpha virt. eigenvalues --    3.33715   3.35165   3.35606   3.36034   3.36306
 Alpha virt. eigenvalues --    3.36578   3.36808   3.37668   3.38293   3.39046
 Alpha virt. eigenvalues --    3.39332   3.39871   3.40334   3.40893   3.41869
 Alpha virt. eigenvalues --    3.42303   3.42584   3.43284   3.44142   3.45067
 Alpha virt. eigenvalues --    3.46021   3.46783   3.46907   3.48006   3.48685
 Alpha virt. eigenvalues --    3.49246   3.49726   3.50397   3.51516   3.51852
 Alpha virt. eigenvalues --    3.52732   3.52938   3.53992   3.55262   3.55281
 Alpha virt. eigenvalues --    3.56858   3.57392   3.58340   3.58726   3.59525
 Alpha virt. eigenvalues --    3.60359   3.61659   3.62062   3.64729   3.65805
 Alpha virt. eigenvalues --    3.66008   3.67018   3.67500   3.67849   3.69306
 Alpha virt. eigenvalues --    3.69757   3.70744   3.71284   3.72425   3.73013
 Alpha virt. eigenvalues --    3.74976   3.75400   3.75640   3.77252   3.77747
 Alpha virt. eigenvalues --    3.77871   3.79837   3.80904   3.81284   3.81598
 Alpha virt. eigenvalues --    3.82803   3.84845   3.85983   3.88536   3.89192
 Alpha virt. eigenvalues --    3.89740   3.90375   3.91379   3.92467   3.93593
 Alpha virt. eigenvalues --    3.93836   3.94574   3.95786   3.96931   3.97383
 Alpha virt. eigenvalues --    3.99892   4.01119   4.02786   4.04476   4.05409
 Alpha virt. eigenvalues --    4.06917   4.07747   4.09665   4.10591   4.11438
 Alpha virt. eigenvalues --    4.11523   4.13734   4.15240   4.16257   4.17702
 Alpha virt. eigenvalues --    4.19036   4.20296   4.21337   4.21891   4.23165
 Alpha virt. eigenvalues --    4.24511   4.27134   4.28129   4.28357   4.30250
 Alpha virt. eigenvalues --    4.33244   4.34453   4.35523   4.37316   4.38426
 Alpha virt. eigenvalues --    4.40236   4.40996   4.42223   4.43580   4.43900
 Alpha virt. eigenvalues --    4.44357   4.46196   4.47367   4.47885   4.50511
 Alpha virt. eigenvalues --    4.51523   4.52586   4.54718   4.57059   4.57794
 Alpha virt. eigenvalues --    4.57983   4.64280   4.64950   4.68101   4.70103
 Alpha virt. eigenvalues --    4.71162   4.71483   4.72559   4.73124   4.73943
 Alpha virt. eigenvalues --    4.75488   4.77151   4.77792   4.79826   4.81746
 Alpha virt. eigenvalues --    4.84132   4.85347   4.86815   4.89789   4.91025
 Alpha virt. eigenvalues --    4.93148   4.93988   4.95759   4.97624   4.99125
 Alpha virt. eigenvalues --    5.00069   5.00879   5.01711   5.04947   5.06044
 Alpha virt. eigenvalues --    5.09002   5.11917   5.15126   5.18541   5.20141
 Alpha virt. eigenvalues --    5.22270   5.23082   5.23538   5.24842   5.27127
 Alpha virt. eigenvalues --    5.28542   5.30227   5.31485   5.32847   5.35965
 Alpha virt. eigenvalues --    5.42025   5.42525   5.45356   5.46573   5.47651
 Alpha virt. eigenvalues --    5.50359   5.51434   5.53031   5.56096   5.57564
 Alpha virt. eigenvalues --    5.63022   5.63499   5.72709   5.75565   5.76178
 Alpha virt. eigenvalues --    5.78321   5.79073   5.81915   5.83080   5.83991
 Alpha virt. eigenvalues --    5.85873   5.87190   5.88032   5.92303   5.93263
 Alpha virt. eigenvalues --    5.96922   5.99325   6.08026   6.17179   6.19893
 Alpha virt. eigenvalues --    6.22777   6.26750   6.29266   6.32058   6.36450
 Alpha virt. eigenvalues --    6.40663   6.41958   6.44728   6.50333   6.52141
 Alpha virt. eigenvalues --    6.52769   6.59323   6.69560   6.72377   6.72936
 Alpha virt. eigenvalues --    6.76394   6.80333   6.83547   6.85147   6.86370
 Alpha virt. eigenvalues --    6.86840   6.91791   6.99442   6.99989   7.06572
 Alpha virt. eigenvalues --    7.08981   7.09619   7.10309   7.16646   7.23663
 Alpha virt. eigenvalues --    7.24692   7.33104   8.98811   9.40649   9.52975
 Alpha virt. eigenvalues --   20.04929  22.30926  22.44858  22.48755  22.55433
 Alpha virt. eigenvalues --   22.57728  22.61514  22.68240  22.71240  22.78942
 Alpha virt. eigenvalues --   22.84495  22.94485  22.98875  23.08157  23.11267
 Alpha virt. eigenvalues --   23.24727  23.38178  32.14713  33.14627  44.14064
 Alpha virt. eigenvalues --   44.16254  44.20012  44.24371  44.50683
          Condensed to atoms (all electrons):
               1          2          3          4          5          6
     1  C    5.111149   0.424311   0.415412  -0.003821  -0.000653  -0.000303
     2  H    0.424311   0.509325  -0.022510  -0.001200   0.000288  -0.000004
     3  H    0.415412  -0.022510   0.542942   0.001270   0.000035  -0.000008
     4  C   -0.003821  -0.001200   0.001270   5.327068   0.474873   0.256178
     5  H   -0.000653   0.000288   0.000035   0.474873   0.543696  -0.030136
     6  O   -0.000303  -0.000004  -0.000008   0.256178  -0.030136   8.016452
     7  H   -0.000039  -0.000005   0.000004  -0.039125  -0.011919   0.291583
     8  C    0.004757   0.012929  -0.008333   0.014899  -0.063523  -0.050552
     9  H    0.008537   0.000031  -0.001913  -0.093990   0.001748   0.003170
    10  O    0.007353  -0.000370   0.000201  -0.036335   0.001355  -0.006958
    11  H   -0.001262  -0.000107   0.000408   0.014754  -0.000784  -0.000477
    12  C   -0.003527  -0.000027   0.000762   0.095061  -0.074240  -0.015860
    13  H   -0.000550   0.000028   0.000126  -0.091210   0.006824   0.005989
    14  C    0.181275  -0.050218  -0.043859   0.092414   0.013111   0.006959
    15  H   -0.075346  -0.007192  -0.002195  -0.006092  -0.000010   0.000058
    16  O   -0.035536   0.000963   0.005585  -0.075440   0.001179   0.005481
    17  N    0.000497  -0.000052  -0.000050   0.007559  -0.013028  -0.003903
    18  C   -0.000727   0.000017   0.000016  -0.012776   0.000841   0.001906
    19  H   -0.000092  -0.000056   0.000046  -0.012381  -0.000979   0.000644
    20  C    0.000006  -0.000005  -0.000002   0.005427   0.003856  -0.000799
    21  H    0.000004   0.000000  -0.000000   0.000055   0.000062  -0.000007
    22  C   -0.000007  -0.000001   0.000000  -0.000434  -0.000267   0.000124
    23  H   -0.000000   0.000000   0.000000   0.000019   0.000006   0.000000
    24  H    0.000000  -0.000000  -0.000000  -0.000027  -0.000020  -0.000001
    25  C   -0.000066  -0.000003   0.000001  -0.005784  -0.000202  -0.000632
    26  C   -0.000261   0.000041  -0.000006   0.017862  -0.001122  -0.006648
    27  H   -0.000021   0.000001   0.000000   0.000660  -0.000137  -0.000055
    28  C    0.000001  -0.000000  -0.000000   0.000031   0.000007  -0.000012
    29  O   -0.000000   0.000000  -0.000000   0.000008   0.000000  -0.000000
    30  N   -0.000000   0.000000   0.000000   0.000001   0.000000  -0.000000
    31  H   -0.000000   0.000000   0.000000   0.000000   0.000000  -0.000000
    32  H    0.000000   0.000000  -0.000000   0.000000   0.000000  -0.000000
    33  C    0.000001  -0.000000   0.000000  -0.000180  -0.000319  -0.013339
    34  C    0.000000  -0.000000   0.000000  -0.000600   0.000120   0.004359
    35  C    0.000000   0.000000  -0.000000  -0.000399   0.000029   0.000489
    36  C   -0.000000   0.000000  -0.000000   0.000001   0.000000   0.000001
    37  C   -0.000000   0.000000  -0.000000   0.000161  -0.000000  -0.000026
    38  O    0.000000   0.000000  -0.000000  -0.002102  -0.000003  -0.010915
    39  S   -0.000000  -0.000000  -0.000000   0.000624   0.000013   0.000495
    40  H   -0.000000   0.000000  -0.000000   0.000167   0.000021  -0.000006
    41  H   -0.000002   0.000000  -0.000000  -0.001986   0.000526   0.014947
    42  H    0.000000  -0.000000  -0.000000  -0.000000  -0.000000  -0.000000
    43  H    0.000000  -0.000000  -0.000000  -0.000000  -0.000000  -0.000000
    44  H    0.000000  -0.000000  -0.000000   0.000000  -0.000000   0.000000
    45  H   -0.000000  -0.000000   0.000000   0.000017   0.000001   0.000003
    46  H   -0.000000  -0.000000   0.000000   0.000000   0.000000   0.000002
    47  H    0.377939  -0.022256  -0.026081   0.001828  -0.000645   0.000037
    48  H    0.000000   0.000000  -0.000000  -0.000003   0.000003   0.000343
               7          8          9         10         11         12
     1  C   -0.000039   0.004757   0.008537   0.007353  -0.001262  -0.003527
     2  H   -0.000005   0.012929   0.000031  -0.000370  -0.000107  -0.000027
     3  H    0.000004  -0.008333  -0.001913   0.000201   0.000408   0.000762
     4  C   -0.039125   0.014899  -0.093990  -0.036335   0.014754   0.095061
     5  H   -0.011919  -0.063523   0.001748   0.001355  -0.000784  -0.074240
     6  O    0.291583  -0.050552   0.003170  -0.006958  -0.000477  -0.015860
     7  H    0.388966   0.013028  -0.000497  -0.000528   0.000198   0.001793
     8  C    0.013028   5.401436   0.510662   0.294951  -0.046890  -0.029204
     9  H   -0.000497   0.510662   0.581848  -0.054371  -0.008391   0.011178
    10  O   -0.000528   0.294951  -0.054371   7.994967   0.295922  -0.024944
    11  H    0.000198  -0.046890  -0.008391   0.295922   0.431308  -0.000995
    12  C    0.001793  -0.029204   0.011178  -0.024944  -0.000995   5.385100
    13  H   -0.001440   0.017300   0.002593   0.013725  -0.001044   0.446824
    14  C   -0.001149   0.052772  -0.125106  -0.060706   0.002246  -0.081887
    15  H    0.000072  -0.037461   0.011022  -0.000453   0.003247  -0.001257
    16  O    0.000212  -0.028692   0.005132   0.008603   0.000005   0.264199
    17  N    0.005550   0.002593  -0.000667   0.000055   0.000017   0.220337
    18  C    0.001400  -0.001883  -0.000169  -0.000151   0.000012  -0.061810
    19  H    0.000277   0.001042   0.000018  -0.000002   0.000002   0.017785
    20  C   -0.001195  -0.000778   0.000026   0.000006  -0.000001   0.007744
    21  H   -0.000014  -0.000001   0.000000   0.000000  -0.000000   0.000026
    22  C    0.000280   0.000030  -0.000003  -0.000001   0.000000  -0.004590
    23  H   -0.000002  -0.000000   0.000000  -0.000000  -0.000000   0.000167
    24  H    0.000021   0.000002  -0.000000   0.000000   0.000000   0.000091
    25  C    0.000719  -0.000319   0.000000  -0.000032  -0.000000  -0.016850
    26  C   -0.001467  -0.003728  -0.000083  -0.000439  -0.000036  -0.075615
    27  H    0.000121  -0.000119  -0.000012  -0.000156   0.000006  -0.003909
    28  C    0.000017   0.000005   0.000000   0.000000  -0.000000  -0.000445
    29  O    0.000004   0.000000   0.000000  -0.000000  -0.000000   0.000420
    30  N    0.000000  -0.000000   0.000000  -0.000000  -0.000000   0.000015
    31  H   -0.000000  -0.000000   0.000000  -0.000000  -0.000000  -0.000005
    32  H   -0.000000  -0.000000   0.000000  -0.000000  -0.000000  -0.000009
    33  C    0.004721   0.000434   0.000010  -0.000534   0.000033   0.000101
    34  C   -0.002726  -0.000014  -0.000007   0.000004   0.000001   0.000818
    35  C    0.000874  -0.000022  -0.000000   0.000000  -0.000000   0.001387
    36  C   -0.000005  -0.000000  -0.000000  -0.000000  -0.000000   0.000012
    37  C   -0.000297   0.000001   0.000000   0.000000  -0.000000  -0.000612
    38  O    0.020596  -0.000136   0.000000   0.000001  -0.000000   0.002901
    39  S   -0.001252  -0.000011   0.000001   0.000000  -0.000001  -0.000943
    40  H   -0.000923  -0.000013   0.000001   0.000009  -0.000001  -0.000046
    41  H   -0.008988  -0.000825  -0.000011   0.001709  -0.000112   0.000793
    42  H   -0.000000   0.000000  -0.000000   0.000000   0.000000   0.000004
    43  H    0.000000   0.000000  -0.000000   0.000000   0.000000  -0.000000
    44  H   -0.000000  -0.000000  -0.000000   0.000000   0.000000  -0.000000
    45  H   -0.000035   0.000000  -0.000000  -0.000000  -0.000000  -0.000048
    46  H   -0.000035   0.000000  -0.000000  -0.000000   0.000000   0.000011
    47  H    0.000024  -0.013638   0.001084   0.000156   0.000132  -0.001087
    48  H    0.000187  -0.000012   0.000001   0.000006  -0.000001  -0.000004
              13         14         15         16         17         18
     1  C   -0.000550   0.181275  -0.075346  -0.035536   0.000497  -0.000727
     2  H    0.000028  -0.050218  -0.007192   0.000963  -0.000052   0.000017
     3  H    0.000126  -0.043859  -0.002195   0.005585  -0.000050   0.000016
[...]
      5        1           0.004063426    0.004009557   -0.000697840
      6        8           0.002576901   -0.005548078   -0.010630971
      7        1          -0.006441725    0.003248245   -0.000142682
      8        6          -0.010689994   -0.004682071   -0.004103828
      9        1           0.000806502    0.004364057   -0.002931825
     10        8           0.005520234   -0.001807330   -0.001386361
     11        1          -0.002158403    0.001947405   -0.000073523
     12        6          -0.009517056    0.006166375    0.003135597
     13        1          -0.003220591   -0.002757794   -0.001954759
     14        6           0.000797603    0.000816358    0.005362491
     15        1          -0.002972122    0.001862002    0.001607827
     16        8           0.000848317   -0.003666949    0.006271897
     17        7           0.018445579    0.004891238    0.000624544
     18        6           0.009197464   -0.000904832    0.008411681
     19        1           0.002827141    0.000715959    0.001056881
     20        6          -0.009610918    0.003214897   -0.007173621
     21        1           0.001077116   -0.004406933    0.001175260
     22        6          -0.003019395    0.001240578    0.001160190
     23        1          -0.002947533    0.001183993   -0.001451210
     24        1          -0.001520051   -0.000720891   -0.002830797
     25        6          -0.011743234    0.002770455   -0.009173259
     26        6           0.007228688   -0.007414398    0.008678406
     27        1           0.001937410    0.001052201    0.001758226
     28        6          -0.004433296   -0.000554811    0.004577796
     29        8          -0.002495134   -0.000268341   -0.005643247
     30        7           0.021999385   -0.001738523   -0.008833106
     31        1          -0.002812757   -0.006692631    0.008004161
     32        1          -0.003971584    0.004716339    0.007471862
     33        6          -0.001836075   -0.009090824   -0.000800843
     34        6          -0.005306213   -0.024454367    0.004285110
     35        6           0.006710282    0.002887324   -0.002524811
     36        6          -0.002056017    0.003213802   -0.002999552
     37        6          -0.008724172   -0.009779185    0.003615798
     38        8          -0.000319810    0.011601157   -0.006305005
     39       16           0.014500909    0.012653807    0.012545109
     40        1           0.002224881    0.000685642   -0.000426646
     41        1           0.000646009    0.000942161    0.001909401
     42        1          -0.001339979    0.000182567   -0.002392522
     43        1          -0.000151916    0.002329096   -0.002212284
     44        1          -0.001657366    0.000467111    0.000020581
     45        1           0.001987614   -0.001880228    0.002071757
     46        1           0.000568326    0.003504068   -0.000753336
     47        1           0.000690916   -0.002149895   -0.000309183
     48        1          -0.002597442    0.004425101   -0.004560160
 -------------------------------------------------------------------
 Cartesian Forces:  Max     0.024454367 RMS     0.005788908
 Leave Link  716 at Sun Apr  9 09:55:20 2023, MaxMem=  2684354560 cpu:               0.9 elap:               0.1
 (Enter /opt/gaussian/g16/l103.exe)

 GradGradGradGradGradGradGradGradGradGradGradGradGradGradGradGradGradGrad
 Berny optimization.
 Search for a local minimum.
 Step number   1 out of a maximum of    2
 All quantities printed in internal units (Hartrees-Bohrs-Radians)
 Second derivative matrix not updated -- first step.
 ITU=  0
     Eigenvalues ---    0.00054   0.00097   0.00104   0.00133   0.00171
     Eigenvalues ---    0.00283   0.00342   0.00372   0.00442   0.00496
     Eigenvalues ---    0.00637   0.00743   0.00882   0.00964   0.01067
     Eigenvalues ---    0.01114   0.01239   0.01386   0.01400   0.01530
     Eigenvalues ---    0.01737   0.01935   0.01992   0.02559   0.02600
     Eigenvalues ---    0.03093   0.03246   0.03405   0.03857   0.03890
     Eigenvalues ---    0.04295   0.04615   0.04963   0.05040   0.05196
     Eigenvalues ---    0.05342   0.05515   0.05615   0.05805   0.05857
     Eigenvalues ---    0.05902   0.06060   0.06275   0.06465   0.06673
     Eigenvalues ---    0.07004   0.07587   0.07688   0.07838   0.08287
     Eigenvalues ---    0.08641   0.09038   0.09762   0.10237   0.10338
     Eigenvalues ---    0.10501   0.11194   0.12030   0.12263   0.12650
     Eigenvalues ---    0.12997   0.13036   0.13364   0.13483   0.13871
     Eigenvalues ---    0.14302   0.14453   0.15036   0.15811   0.16590
     Eigenvalues ---    0.16824   0.17536   0.18026   0.18784   0.20034
     Eigenvalues ---    0.20236   0.21522   0.21732   0.21990   0.23994
     Eigenvalues ---    0.27222   0.27696   0.27851   0.30933   0.32868
     Eigenvalues ---    0.35103   0.35139   0.36999   0.37146   0.37687
     Eigenvalues ---    0.37687   0.37687   0.37687   0.37687   0.41890
     Eigenvalues ---    0.43700   0.44488   0.48254   0.53795   0.57847
     Eigenvalues ---    0.60848   0.67114   0.67351   0.71310   0.76493
     Eigenvalues ---    0.77850   0.83278   0.87707   0.89809   0.90020
     Eigenvalues ---    0.90645   0.92730   0.93142   0.94096   0.94605
     Eigenvalues ---    0.95342   0.96264   0.98400   0.99503   1.02221
     Eigenvalues ---    1.03286   1.06002   1.07628   1.09565   1.10348
     Eigenvalues ---    1.13791   1.18234   1.21388   1.23237   1.27396
     Eigenvalues ---    1.28512   1.32580   1.51134   1.69355   1.70453
     Eigenvalues ---    1.81133   2.12658   2.24878
 Quadratic step=1.307D+00 exceeds max=3.000D-01 adjusted using Lamda=-2.247D-02.
 Angle between NR and scaled steps=  48.85 degrees.
 Angle between quadratic step and forces=  57.52 degrees.
 Linear search not attempted -- first point.
 Variable       Old X    -DE/DX   Delta X   Delta X   Delta X     New X
                                 (Linear)    (Quad)   (Total)
    X1        6.48557  -0.00456   0.00000  -0.02129  -0.02129   6.46427
    Y1       -7.32192   0.01435   0.00000   0.02859   0.02859  -7.29334
    Z1       -1.26736  -0.00011   0.00000  -0.00308  -0.00308  -1.27044
    X2        6.63356  -0.00023   0.00000  -0.02065  -0.02065   6.61291
    Y2       -7.60869  -0.00396   0.00000  -0.01565  -0.01565  -7.62434
    Z2       -3.29482  -0.00124   0.00000  -0.00221  -0.00221  -3.29704
    X3        8.17400   0.00051   0.00000  -0.03190  -0.03190   8.14210
    Y3       -8.03392  -0.00450   0.00000  -0.02868  -0.02868  -8.06260
    Z3       -0.34018   0.00054   0.00000  -0.00998  -0.00998  -0.35017
    X4        3.05166   0.00117   0.00000  -0.01357  -0.01357   3.03809
    Y4       -2.91127  -0.00247   0.00000   0.00479   0.00479  -2.90647
    Z4        1.97156  -0.00263   0.00000  -0.03634  -0.03634   1.93522
    X5        1.81578   0.00406   0.00000   0.01256   0.01256   1.82834
    Y5       -4.59761   0.00401   0.00000   0.00590   0.00590  -4.59171
    Z5        1.95797  -0.00070   0.00000  -0.04740  -0.04740   1.91058
    X6        2.47991   0.00258   0.00000  -0.05012  -0.05012   2.42979
    Y6       -1.32266  -0.00555   0.00000   0.00609   0.00609  -1.31657
    Z6        4.01752  -0.01063   0.00000  -0.06915  -0.06915   3.94836
    X7        0.78265  -0.00644   0.00000  -0.05974  -0.05974   0.72291
    Y7       -0.69136   0.00325   0.00000   0.01172   0.01172  -0.67964
    Z7        3.80038  -0.00014   0.00000  -0.05684  -0.05684   3.74354
    X8        5.83154  -0.01069   0.00000  -0.02941  -0.02941   5.80213
    Y8       -3.77785  -0.00468   0.00000   0.00979   0.00979  -3.76806
    Z8        2.04348  -0.00410   0.00000  -0.01608  -0.01608   2.02740
    X9        6.07049   0.00081   0.00000  -0.00972  -0.00972   6.06077
    Y9       -5.42694   0.00436   0.00000   0.02422   0.02422  -5.40271
    Z9        3.29285  -0.00293   0.00000  -0.02109  -0.02109   3.27176
   X10        7.27389   0.00552   0.00000   0.00320   0.00320   7.27709
   Y10       -1.70882  -0.00181   0.00000   0.00084   0.00084  -1.70799
   Z10        2.87379  -0.00139   0.00000  -0.03587  -0.03587   2.83792
   X11        9.01758  -0.00216   0.00000  -0.00242  -0.00242   9.01516
   Y11       -2.22892   0.00195   0.00000  -0.00270  -0.00270  -2.23163
   Z11        2.96171  -0.00007   0.00000  -0.02327  -0.02327   2.93844
   X12        2.97110  -0.00952   0.00000   0.00047   0.00047   2.97157
   Y12       -1.67235   0.00617   0.00000   0.02006   0.02006  -1.65229
   Z12       -0.67850   0.00314   0.00000   0.00162   0.00162  -0.67688
   X13        3.95261  -0.00322   0.00000  -0.00245  -0.00245   3.95016
   Y13        0.15638  -0.00276   0.00000   0.00897   0.00897   0.16535
   Z13       -0.51820  -0.00195   0.00000  -0.01565  -0.01565  -0.53385
   X14        6.33234   0.00080   0.00000  -0.01305  -0.01305   6.31929
   Y14       -4.48825   0.00082   0.00000   0.01517   0.01517  -4.47308
   Z14       -0.77792   0.00536   0.00000   0.01497   0.01497  -0.76295
   X15        8.13082  -0.00297   0.00000  -0.02904  -0.02904   8.10178
   Y15       -3.63172   0.00186   0.00000   0.04183   0.04183  -3.58989
   Z15       -1.36632   0.00161   0.00000   0.02389   0.02389  -1.34243
   X16        4.32988   0.00085   0.00000  -0.01780  -0.01780   4.31208
   Y16       -3.37008  -0.00367   0.00000  -0.00810  -0.00810  -3.37818
   Z16       -2.23662   0.00627   0.00000   0.02409   0.02409  -2.21253
   X17        0.46914   0.01845   0.00000   0.03807   0.03807   0.50721
   Y17       -1.16251   0.00489   0.00000   0.01651   0.01651  -1.14600
   Z17       -1.72636   0.00062   0.00000   0.01091   0.01091  -1.71545
   X18       -1.25613   0.00920   0.00000   0.03232   0.03232  -1.22380
   Y18       -3.11769  -0.00090   0.00000   0.01554   0.01554  -3.10215
   Z18       -2.18044   0.00841   0.00000   0.03253   0.03253  -2.14792
   X19       -0.70158   0.00283   0.00000   0.06374   0.06374  -0.63784
   Y19       -4.98119   0.00072   0.00000   0.02626   0.02626  -4.95493
   Z19       -1.55886   0.00106   0.00000   0.03984   0.03984  -1.51902
   X20       -3.43948  -0.00961   0.00000   0.01233   0.01233  -3.42715
   Y20       -2.71240   0.00321   0.00000  -0.01067  -0.01067  -2.72307
   Z20       -3.30227  -0.00717   0.00000   0.01084   0.01084  -3.29143
   X21       -4.74094   0.00108   0.00000   0.04719   0.04719  -4.69375
   Y21       -4.24749  -0.00441   0.00000  -0.05060  -0.05060  -4.29809
   Z21       -3.61650   0.00118   0.00000   0.02565   0.02565  -3.59085
   X22       -4.24346  -0.00302   0.00000  -0.02160  -0.02160  -4.26506
   Y22       -0.16739   0.00124   0.00000  -0.01356  -0.01356  -0.18095
   Z22       -4.24817   0.00116   0.00000   0.00156   0.00156  -4.24661
   X23       -4.90016  -0.00295   0.00000  -0.02630  -0.02630  -4.92647
   Y23       -0.38531   0.00118   0.00000   0.00472   0.00472  -0.38059
   Z23       -6.19324  -0.00145   0.00000  -0.00374  -0.00374  -6.19698
   X24       -5.86314  -0.00152   0.00000  -0.03522  -0.03522  -5.89836
   Y24        0.52821  -0.00072   0.00000  -0.01883  -0.01883   0.50938
   Z24       -3.14914  -0.00283   0.00000  -0.02016  -0.02016  -3.16929
   X25       -2.12008  -0.01174   0.00000  -0.01457  -0.01457  -2.13465
   Y25        1.71576   0.00277   0.00000  -0.01259  -0.01259   1.70317
   Z25       -4.07481  -0.00917   0.00000   0.01796   0.01796  -4.05685
   X26        0.01328   0.00723   0.00000   0.00606   0.00606   0.01934
   Y26        1.15053  -0.00741   0.00000   0.00204   0.00204   1.15257
   Z26       -2.86647   0.00868   0.00000   0.02997   0.02997  -2.83649
   X27        1.49413   0.00194   0.00000   0.00446   0.00446   1.49858
   Y27        2.54582   0.00105   0.00000   0.01172   0.01172   2.55754
   Z27       -2.71379   0.00176   0.00000   0.04265   0.04265  -2.67114
   X28       -2.46220  -0.00443   0.00000   0.01130   0.01130  -2.45090
   Y28        4.30782  -0.00055   0.00000  -0.01940  -0.01940   4.28842
   Z28       -5.10197   0.00458   0.00000   0.03170   0.03170  -5.07027
   X29       -1.20873  -0.00250   0.00000   0.01425   0.01425  -1.19449
   Y29        6.09921  -0.00027   0.00000  -0.00568  -0.00568   6.09353
   Z29       -4.40395  -0.00564   0.00000  -0.02261  -0.02261  -4.42656
   X30       -4.51561   0.02200   0.00000   0.08302   0.08302  -4.43259
   Y30        4.61977  -0.00174   0.00000  -0.02791  -0.02791   4.59186
   Z30       -6.79492  -0.00883   0.00000  -0.00497  -0.00497  -6.79989
   X31       -4.30811  -0.00281   0.00000   0.03085   0.03085  -4.27726
   Y31        6.28289  -0.00669   0.00000  -0.01682  -0.01682   6.26607
   Z31       -7.76762   0.00800   0.00000   0.04471   0.04471  -7.72291
   X32       -4.65516  -0.00397   0.00000  -0.01135  -0.01135  -4.66651
   Y32        3.15303   0.00472   0.00000  -0.02471  -0.02471   3.12832
   Z32       -8.04482   0.00747   0.00000   0.03229   0.03229  -8.01253
   X33        0.99585  -0.00184   0.00000   0.00412   0.00412   0.99997
   Y33        3.95025  -0.00909   0.00000  -0.03021  -0.03021   3.92004
   Z33        7.10236  -0.00080   0.00000   0.00562   0.00562   7.10797
   X34       -2.11763  -0.00531   0.00000  -0.00069  -0.00069  -2.11832
   Y34        4.16725  -0.02445   0.00000  -0.00186  -0.00186   4.16539
   Z34        3.04323   0.00429   0.00000   0.01664   0.01664   3.05987
   X35       -3.55146   0.00671   0.00000  -0.00033  -0.00033  -3.55179
   Y35        5.62174   0.00289   0.00000   0.00182   0.00182   5.62356
   Z35        1.17821  -0.00252   0.00000  -0.00362  -0.00362   1.17460
   X36       -7.28549  -0.00206   0.00000  -0.01853  -0.01853  -7.30402
   Y36        6.36622   0.00321   0.00000   0.00032   0.00032   6.36654
   Z36       -1.52939  -0.00300   0.00000  -0.01491  -0.01491  -1.54430
   X37       -5.71243  -0.00872   0.00000  -0.02083  -0.02083  -5.73326
   Y37        4.85468  -0.00978   0.00000  -0.01619  -0.01619   4.83848
   Z37        0.20660   0.00362   0.00000   0.01320   0.01320   0.21980
   X38       -2.29912  -0.00032   0.00000  -0.00301  -0.00301  -2.30213
   Y38        1.89739   0.01160   0.00000   0.00144   0.00144   1.89883
   Z38        3.45929  -0.00631   0.00000  -0.04039  -0.04039   3.41890
   X39       -0.17691   0.01450   0.00000   0.03944   0.03944  -0.13746
   Y39        6.13546   0.01265   0.00000   0.01466   0.01466   6.15012
   Z39        4.77715   0.01255   0.00000   0.04277   0.04277   4.81992
   X40       -0.61873   0.00222   0.00000   0.01212   0.01212  -0.60660
   Y40        3.07861   0.00069   0.00000  -0.02610  -0.02610   3.05251
   Z40        8.04482  -0.00043   0.00000   0.00932   0.00932   8.05414
   X41        2.08819   0.00065   0.00000   0.03840   0.03840   2.12659
   Y41        2.48668   0.00094   0.00000  -0.01375  -0.01375   2.47294
   Z41        6.15188   0.00191   0.00000   0.03003   0.03003   6.18191
   X42       -7.81570  -0.00134   0.00000  -0.02041  -0.02041  -7.83611
   Y42        5.24578   0.00018   0.00000   0.01236   0.01236   5.25814
   Z42       -3.16768  -0.00239   0.00000  -0.02779  -0.02779  -3.19547
   X43       -6.26718  -0.00015   0.00000  -0.01398  -0.01398  -6.28116
   Y43        8.03392   0.00233   0.00000   0.00492   0.00492   8.03884
   Z43       -2.15682  -0.00221   0.00000  -0.02263  -0.02263  -2.17945
   X44       -9.01758  -0.00166   0.00000  -0.02182  -0.02182  -9.03939
   Y44        6.94950   0.00047   0.00000   0.01348   0.01348   6.96298
   Z44       -0.57520   0.00002   0.00000  -0.02307  -0.02307  -0.59827
   X45       -6.46280   0.00199   0.00000   0.00808   0.00808  -6.45473
   Y45        3.02899  -0.00188   0.00000  -0.02302  -0.02302   3.00596
   Z45        0.76632   0.00207   0.00000   0.03515   0.03515   0.80147
   X46       -2.76486   0.00057   0.00000  -0.00531  -0.00531  -2.77017
   Y46        7.43262   0.00350   0.00000   0.01370   0.01370   7.44632
   Z46        0.66038  -0.00075   0.00000  -0.00808  -0.00808   0.65230
   X47        4.80364   0.00069   0.00000  -0.01153  -0.01153   4.79210
   Y47       -8.26616  -0.00215   0.00000   0.00443   0.00443  -8.26173
   Z47       -0.54465  -0.00031   0.00000  -0.01038  -0.01038  -0.55503
   X48        2.18739  -0.00260   0.00000  -0.02867  -0.02867   2.15872
   Y48        4.89222   0.00443   0.00000   0.03902   0.03902   4.93125
   Z48        8.49365  -0.00456   0.00000  -0.02225  -0.02225   8.47140
         Item               Value     Threshold  Converged?
 Maximum Force            0.024454     0.000450     NO 
 RMS     Force            0.005789     0.000300     NO 
 Maximum Displacement     0.083016     0.001800     NO 
 RMS     Displacement     0.025003     0.001200     NO 
 Predicted change in Energy=-6.607818D-03
 GradGradGradGradGradGradGradGradGradGradGradGradGradGradGradGradGradGrad

 Leave Link  103 at Sun Apr  9 09:55:20 2023, MaxMem=  2684354560 cpu:               1.9 elap:               0.1
 (Enter /opt/gaussian/g16/l9999.exe)

 Test job not archived.
 1\1\GINC-JULIO-SYS\Force\RM062X\def2TZVP\C16H24N2O5S1\JVELAZQUEZ\09-Ap
 r-2023\0\\#P M062X/Def2TZVP scf=(direct,conver=8) EmpiricalDispersion=
 GD3 NoSymm Force pop=(NBORead) Charge Prop=(Field,Read)\\Gaussian run 
 using SANDER external interface, route from template gau_job.tpl\\0,1\
 C,3.4320137857,-3.8745943172,-0.670659906\H,3.5103275895,-4.0263431433
 ,-1.74354516\H,4.3254924801,-4.2513668369,-0.1800180271\C,1.6148709624
 ,-1.5405767788,1.0433026209\H,0.9608672952,-2.4329500163,1.0361145738\
 O,1.3123127857,-0.6999206035,2.1259777853\H,0.4141616714,-0.3658495897
 ,2.0110724246\C,3.0859179662,-1.9991525392,1.0813620425\H,3.212365974,
 -2.8718113372,1.7425000575\O,3.8491757357,-0.9042696521,1.5207460198\H
 ,4.7718957238,-1.1794950485,1.5672701913\C,1.5722384182,-0.8849703983,
 -0.3590472648\H,2.0916308033,0.0827519617,-0.2742197899\C,3.350931469,
 -2.3750775024,-0.4116582605\H,4.3026443812,-1.9218243856,-0.7230263723
 \O,2.291272625,-1.783367762,-1.1835675563\N,0.2482558767,-0.6151731447
 ,-0.9135516083\C,-0.6647128994,-1.6498097697,-1.1538413155\H,-0.371257
 9687,-2.6359311519,-0.8249126652\C,-1.8200922991,-1.4353422678,-1.7474
 879853\H,-2.5087969605,-2.2476740641,-1.9137700894\C,-2.2455436324,-0.
 0885786986,-2.248034987\H,-2.593055114,-0.2038969396,-3.2773225097\H,-
 3.1026422312,0.2795159224,-1.6664509175\C,-1.121897872,0.907940955,-2.
 1562964698\C,0.0070267874,0.6088338212,-1.5168692894\H,0.7906576064,1.
 3471900387,-1.4360761355\C,-1.3029378877,2.2796011963,-2.6998455123\O,
 -0.6396328943,3.2275641503,-2.3304704034\N,-2.3895574008,2.4446789988,
 -3.5957163508\H,-2.2797543551,3.3247640021,-4.1104462293\H,-2.46340454
 17,1.6685114717,-4.2571344373\C,0.5269795381,2.090380703,3.758404602\C
 ,-1.1206041542,2.2052146189,1.6104075578\C,-1.879353548,2.9748979045,0
 .623483816\C,-3.8553158512,3.368857764,-0.8093165031\C,-3.0228903386,2
 .5689851895,0.1093297035\O,-1.2166414593,1.0040568842,1.8305792778\S,-
 0.0936158228,3.2467441752,2.5279597635\H,-0.3274159035,1.6291303712,4.
 2571344373\H,1.1050237503,1.3158960703,3.2554364732\H,-4.1358909465,2.
 7759459662,-1.6762625335\H,-3.3164493199,4.2513668369,-1.1413373928\H,
 -4.7718957238,3.6775159365,-0.3043849681\H,-3.4199683026,1.6028702772,
 0.4055201456\H,-1.4631029992,3.9331733884,0.3494589783\H,2.5419752096,
 -4.3742625201,-0.2882164198\H,1.157516439,2.5888539646,4.4946434384\\V
 ersion=ES64L-G16RevA.03\HF=-1507.9073737\RMSD=1.925e-09\RMSF=5.789e-03
 \Dipole=0.1359709,-1.2413669,-0.4891063\Quadrupole=8.2077504,-6.185397
 9,-2.0223525,-8.9828224,8.9353686,-0.9539262\PG=C01 [X(C16H24N2O5S1)]\
 \@


 LAWS OF PROGRAMMING DEFINITION:  A WORKING PROGRAM
                                  IS ONE THAT HAS
                                  ONLY UNOBSERVED
                                  BUGS.
 Job cpu time:       0 days  6 hours 58 minutes 23.5 seconds.
 Elapsed time:       0 days  0 hours 26 minutes  9.8 seconds.
 File lengths (MBytes):  RWF=    435 Int=      0 D2E=      0 Chk=     48 Scr=      1
 Normal termination of Gaussian 16 at Sun Apr  9 09:55:20 2023.
