 Entering Gaussian System, Link 0=g16
 Initial command:
 /opt/gaussian/g16/l1.exe "/opt/gaussian/scratch16/Gau-3402406.inp" -scrdir="/opt/gaussian/scratch16/"
 Entering Link 1 = /opt/gaussian/g16/l1.exe PID=   3402408.
  
 Copyright (c) 1988,1990,1992,1993,1995,1998,2003,2009,2016,
            Gaussian, Inc.  All Rights Reserved.
  
 This is part of the Gaussian(R) 16 program.  It is based on
 the Gaussian(R) 09 system (copyright 2009, Gaussian, Inc.),
 the Gaussian(R) 03 system (copyright 2003, Gaussian, Inc.),
 the Gaussian(R) 98 system (copyright 1998, Gaussian, Inc.),
 the Gaussian(R) 94 system (copyright 1995, Gaussian, Inc.),
 the Gaussian 92(TM) system (copyright 1992, Gaussian, Inc.),
 the Gaussian 90(TM) system (copyright 1990, Gaussian, Inc.),
 the Gaussian 88(TM) system (copyright 1988, Gaussian, Inc.),
 the Gaussian 86(TM) system (copyright 1986, Carnegie Mellon
 University), and the Gaussian 82(TM) system (copyright 1983,
 Carnegie Mellon University). Gaussian is a federally registered
 trademark of Gaussian, Inc.
  
 This software contains proprietary and confidential information,
 including trade secrets, belonging to Gaussian, Inc.
  
 This software is provided under written license and may be
 used, copied, transmitted, or stored only in accord with that
 written license.
  
 The following legend is applicable only to US Government
 contracts under FAR:
  
                    RESTRICTED RIGHTS LEGEND
  
 Use, reproduction and disclosure by the US Government is
 subject to restrictions as set forth in subparagraphs (a)
 and (c) of the Commercial Computer Software - Restricted
 Rights clause in FAR 52.227-19.
  
 Gaussian, Inc.
 340 Quinnipiac St., Bldg. 40, Wallingford CT 06492
  
  
 ---------------------------------------------------------------
 Warning -- This program may not be used in any manner that
 competes with the business of Gaussian, Inc. or will provide
 assistance to any competitor of Gaussian, Inc.  The licensee
 of this program is prohibited from giving any competitor of
 Gaussian, Inc. access to this program.  By using this program,
 the user acknowledges that Gaussian, Inc. is engaged in the
 business of creating and licensing software in the field of
 computational chemistry and represents and warrants to the
 licensee that it is not a competitor of Gaussian, Inc. and that
 it will not use this program in any manner prohibited above.
 ---------------------------------------------------------------
  

 Cite this work as:
 Gaussian 16, Revision A.03,
 M. J. Frisch, G. W. Trucks, H. B. Schlegel, G. E. Scuseria, 
 M. A. Robb, J. R. Cheeseman, G. Scalmani, V. Barone, 
 G. A. Petersson, H. Nakatsuji, X. Li, M. Caricato, A. V. Marenich, 
 J. Bloino, B. G. Janesko, R. Gomperts, B. Mennucci, H. P. Hratchian, 
 J. V. Ortiz, A. F. Izmaylov, J. L. Sonnenberg, D. Williams-Young, 
 F. Ding, F. Lipparini, F. Egidi, J. Goings, B. Peng, A. Petrone, 
 T. Henderson, D. Ranasinghe, V. G. Zakrzewski, J. Gao, N. Rega, 
 G. Zheng, W. Liang, M. Hada, M. Ehara, K. Toyota, R. Fukuda, 
 J. Hasegawa, M. Ishida, T. Nakajima, Y. Honda, O. Kitao, H. Nakai, 
 T. Vreven, K. Throssell, J. A. Montgomery, Jr., J. E. Peralta, 
 F. Ogliaro, M. J. Bearpark, J. J. Heyd, E. N. Brothers, K. N. Kudin, 
 V. N. Staroverov, T. A. Keith, R. Kobayashi, J. Normand, 
 K. Raghavachari, A. P. Rendell, J. C. Burant, S. S. Iyengar, 
 J. Tomasi, M. Cossi, J. M. Millam, M. Klene, C. Adamo, R. Cammi, 
 J. W. Ochterski, R. L. Martin, K. Morokuma, O. Farkas, 
 J. B. Foresman, and D. J. Fox, Gaussian, Inc., Wallingford CT, 2016.
 
 ******************************************
 Gaussian 16:  ES64L-G16RevA.03 25-Dec-2016
                 9-Apr-2023 
 ******************************************
 %chk=8.chk
 %NProcShared=16
 Will use up to   16 processors via shared memory.
 %mem=20GB
 ----------------------------------------------------------------------
 #P M062X/Def2TZVP scf=(direct,conver=8) EmpiricalDispersion=GD3 NoSymm
  Force pop=(NBORead) Charge Prop=(Field,Read)
 ----------------------------------------------------------------------
 1/10=7,18=10,28=-2,30=1,38=1,125=101/1,3;
 2/12=2,15=1,17=6,18=5,29=2,40=1/2;
 3/5=44,7=101,11=2,25=1,30=1,71=1,74=-55,124=31/1,2,3;
 4//1;
 5/5=2,6=8,38=5/2;
 6/7=2,8=2,9=2,10=2,14=2,15=1,28=1,40=2/1,2,7;
 7/7=1,16=-2,29=1,30=1/1,2,3,16;
 1/10=7,18=10,28=-2,30=1/3;
 99/12=1/99;
 Leave Link    1 at Sun Apr  9 09:30:04 2023, MaxMem=  2684354560 cpu:               1.0 elap:               0.1
 (Enter /opt/gaussian/g16/l101.exe)
 ----------------------------------------------------------------------
 Gaussian run using SANDER external interface, route from template gau_
 job.tpl
 ----------------------------------------------------------------------
 Symbolic Z-matrix:
 Charge =  0 Multiplicity = 1
 C                     3.53747  -3.79302  -0.69052 
 H                     3.64516  -3.95797  -1.75862 
 H                     4.42754  -4.14488  -0.17653 
 C                     1.66941  -1.42346   0.97609 
 H                     0.993    -2.2996    0.95163 
 O                     1.3692   -0.57372   2.04662 
 H                     0.45956  -0.2642    1.94392 
 C                     3.1282   -1.91598   1.04233 
 H                     3.22241  -2.79727   1.69953 
 O                     3.89938  -0.83764   1.50481 
 H                     4.82372  -1.10997   1.51182 
 C                     1.68021  -0.77357  -0.42906 
 H                     2.24039   0.16984  -0.3416 
 C                     3.42315  -2.29315  -0.44677 
 H                     4.3743   -1.82828  -0.74303 
 O                     2.3712   -1.71355  -1.23643 
 N                     0.36784  -0.45261  -0.98183 
 C                    -0.56347  -1.46349  -1.22501 
 H                    -0.24539  -2.47163  -0.99927 
 C                    -1.75134  -1.19762  -1.73307 
 H                    -2.43048  -1.99949  -1.96868 
 C                    -2.19066   0.20473  -2.00272 
 H                    -2.8386    0.2212   -2.87715 
 H                    -2.788     0.62397  -1.14056 
 C                    -0.99657   1.10082  -2.17506 
 C                     0.16504   0.76714  -1.61218 
 H                     1.00443   1.44557  -1.64713 
 C                    -1.15939   2.43278  -2.81307 
 O                    -0.47086   3.38399  -2.52759 
 N                    -2.28392   2.55583  -3.69197 
 H                    -2.17325   3.40155  -4.26202 
 H                    -2.36716   1.74385  -4.31024 
 C                     0.70908   2.05263   3.78225 
 C                    -1.05091   2.08471   1.70741 
 C                    -1.82081   2.80024   0.68718 
 C                    -3.81829   3.16345  -0.71816 
 C                    -2.98352   2.38424   0.22025 
 O                    -1.19167   0.90551   2.01617 
 S                     0.06619   3.13258   2.4968 
 H                    -0.13533   1.61004   4.31024 
 H                     1.2891    1.2583    3.31628 
 H                    -3.8996    2.65525  -1.67585 
 H                    -3.38821   4.14488  -0.89152 
 H                    -4.82372   3.28391  -0.31529 
 H                    -3.41891   1.47727   0.62581 
 H                    -1.38801   3.73221   0.35378 
 H                     2.65229  -4.30946  -0.31921 
 H                     1.34091   2.59675   4.48426 
 
 ITRead=  0  0  0  0  0  0  0  0  0  0  0  0  0  0  0  0  0  0  0  0
 ITRead=  0  0  0  0  0  0  0  0  0  0  0  0  0  0  0  0  0  0  0  0
 ITRead=  0  0  0  0  0  0  0  0
 MicOpt= -1 -1 -1 -1 -1 -1 -1 -1 -1 -1 -1 -1 -1 -1 -1 -1 -1 -1 -1 -1
 MicOpt= -1 -1 -1 -1 -1 -1 -1 -1 -1 -1 -1 -1 -1 -1 -1 -1 -1 -1 -1 -1
 MicOpt= -1 -1 -1 -1 -1 -1 -1 -1
 NAtoms=     48 NQM=       48 NQMF=       0 NMMI=      0 NMMIF=      0
                NMic=       0 NMicF=      0.
                    Isotopes and Nuclear Properties:
 (Nuclear quadrupole moments (NQMom) in fm**2, nuclear magnetic moments (NMagM)
  in nuclear magnetons)

  Atom         1           2           3           4           5           6           7           8           9          10
 IAtWgt=          12           1           1          12           1          16           1          12           1          16
 AtmWgt=  12.0000000   1.0078250   1.0078250  12.0000000   1.0078250  15.9949146   1.0078250  12.0000000   1.0078250  15.9949146
 NucSpn=           0           1           1           0           1           0           1           0           1           0
 AtZEff=  -0.0000000  -0.0000000  -0.0000000  -0.0000000  -0.0000000  -0.0000000  -0.0000000  -0.0000000  -0.0000000  -0.0000000
 NQMom=    0.0000000   0.0000000   0.0000000   0.0000000   0.0000000   0.0000000   0.0000000   0.0000000   0.0000000   0.0000000
 NMagM=    0.0000000   2.7928460   2.7928460   0.0000000   2.7928460   0.0000000   2.7928460   0.0000000   2.7928460   0.0000000
 AtZNuc=   6.0000000   1.0000000   1.0000000   6.0000000   1.0000000   8.0000000   1.0000000   6.0000000   1.0000000   8.0000000

  Atom        11          12          13          14          15          16          17          18          19          20
 IAtWgt=           1          12           1          12           1          16          14          12           1          12
 AtmWgt=   1.0078250  12.0000000   1.0078250  12.0000000   1.0078250  15.9949146  14.0030740  12.0000000   1.0078250  12.0000000
 NucSpn=           1           0           1           0           1           0           2           0           1           0
 AtZEff=  -0.0000000  -0.0000000  -0.0000000  -0.0000000  -0.0000000  -0.0000000  -0.0000000  -0.0000000  -0.0000000  -0.0000000
 NQMom=    0.0000000   0.0000000   0.0000000   0.0000000   0.0000000   0.0000000   2.0440000   0.0000000   0.0000000   0.0000000
 NMagM=    2.7928460   0.0000000   2.7928460   0.0000000   2.7928460   0.0000000   0.4037610   0.0000000   2.7928460   0.0000000
 AtZNuc=   1.0000000   6.0000000   1.0000000   6.0000000   1.0000000   8.0000000   7.0000000   6.0000000   1.0000000   6.0000000

  Atom        21          22          23          24          25          26          27          28          29          30
 IAtWgt=           1          12           1           1          12          12           1          12          16          14
 AtmWgt=   1.0078250  12.0000000   1.0078250   1.0078250  12.0000000  12.0000000   1.0078250  12.0000000  15.9949146  14.0030740
 NucSpn=           1           0           1           1           0           0           1           0           0           2
 AtZEff=  -0.0000000  -0.0000000  -0.0000000  -0.0000000  -0.0000000  -0.0000000  -0.0000000  -0.0000000  -0.0000000  -0.0000000
 NQMom=    0.0000000   0.0000000   0.0000000   0.0000000   0.0000000   0.0000000   0.0000000   0.0000000   0.0000000   2.0440000
 NMagM=    2.7928460   0.0000000   2.7928460   2.7928460   0.0000000   0.0000000   2.7928460   0.0000000   0.0000000   0.4037610
 AtZNuc=   1.0000000   6.0000000   1.0000000   1.0000000   6.0000000   6.0000000   1.0000000   6.0000000   8.0000000   7.0000000

  Atom        31          32          33          34          35          36          37          38          39          40
 IAtWgt=           1           1          12          12          12          12          12          16          32           1
 AtmWgt=   1.0078250   1.0078250  12.0000000  12.0000000  12.0000000  12.0000000  12.0000000  15.9949146  31.9720718   1.0078250
 NucSpn=           1           1           0           0           0           0           0           0           0           1
 AtZEff=  -0.0000000  -0.0000000  -0.0000000  -0.0000000  -0.0000000  -0.0000000  -0.0000000  -0.0000000  -0.0000000  -0.0000000
 NQMom=    0.0000000   0.0000000   0.0000000   0.0000000   0.0000000   0.0000000   0.0000000   0.0000000   0.0000000   0.0000000
 NMagM=    2.7928460   2.7928460   0.0000000   0.0000000   0.0000000   0.0000000   0.0000000   0.0000000   0.0000000   2.7928460
 AtZNuc=   1.0000000   1.0000000   6.0000000   6.0000000   6.0000000   6.0000000   6.0000000   8.0000000  16.0000000   1.0000000

  Atom        41          42          43          44          45          46          47          48
 IAtWgt=           1           1           1           1           1           1           1           1
 AtmWgt=   1.0078250   1.0078250   1.0078250   1.0078250   1.0078250   1.0078250   1.0078250   1.0078250
 NucSpn=           1           1           1           1           1           1           1           1
 AtZEff=  -0.0000000  -0.0000000  -0.0000000  -0.0000000  -0.0000000  -0.0000000  -0.0000000  -0.0000000
 NQMom=    0.0000000   0.0000000   0.0000000   0.0000000   0.0000000   0.0000000   0.0000000   0.0000000
 NMagM=    2.7928460   2.7928460   2.7928460   2.7928460   2.7928460   2.7928460   2.7928460   2.7928460
 AtZNuc=   1.0000000   1.0000000   1.0000000   1.0000000   1.0000000   1.0000000   1.0000000   1.0000000
 Background charge distribution read from input stream:
 Leave Link  101 at Sun Apr  9 09:30:04 2023, MaxMem=  2684354560 cpu:               4.0 elap:               0.3
 (Enter /opt/gaussian/g16/l103.exe)

 GradGradGradGradGradGradGradGradGradGradGradGradGradGradGradGradGradGrad
 Berny optimization.
 Initialization pass.
 Trust Radius=3.00D-01 FncErr=1.00D-07 GrdErr=1.00D-07 EigMax=2.50D+02 EigMin=1.00D-04
 Number of steps in this run=      2 maximum allowed number of steps=      2.
 GradGradGradGradGradGradGradGradGradGradGradGradGradGradGradGradGradGrad

 Leave Link  103 at Sun Apr  9 09:30:04 2023, MaxMem=  2684354560 cpu:               0.4 elap:               0.0
 (Enter /opt/gaussian/g16/l202.exe)
 ---------------------------------------------------------------------------------------------------
                            Z-MATRIX (ANGSTROMS AND DEGREES)
   CD    Cent   Atom    N1       Length/X        N2       Alpha/Y        N3        Beta/Z          J
 ---------------------------------------------------------------------------------------------------
      1      1  C        0   3.537466         -3.793025         -0.690517
      2      2  H        0   3.645158         -3.957972         -1.758619
      3      3  H        0   4.427540         -4.144879         -0.176534
      4      4  C        0   1.669414         -1.423461          0.976086
      5      5  H        0   0.992999         -2.299604          0.951630
      6      6  O        0   1.369201         -0.573725          2.046623
      7      7  H        0   0.459560         -0.264204          1.943923
      8      8  C        0   3.128199         -1.915981          1.042327
      9      9  H        0   3.222405         -2.797270          1.699526
     10     10  O        0   3.899378         -0.837641          1.504814
     11     11  H        0   4.823722         -1.109974          1.511821
     12     12  C        0   1.680211         -0.773568         -0.429061
     13     13  H        0   2.240390          0.169837         -0.341598
     14     14  C        0   3.423153         -2.293153         -0.446766
     15     15  H        0   4.374296         -1.828279         -0.743032
     16     16  O        0   2.371204         -1.713548         -1.236427
     17     17  N        0   0.367841         -0.452607         -0.981828
     18     18  C        0  -0.563473         -1.463491         -1.225015
     19     19  H        0  -0.245391         -2.471629         -0.999273
     20     20  C        0  -1.751341         -1.197620         -1.733073
     21     21  H        0  -2.430483         -1.999487         -1.968680
     22     22  C        0  -2.190658          0.204732         -2.002722
     23     23  H        0  -2.838598          0.221201         -2.877147
     24     24  H        0  -2.788005          0.623965         -1.140556
     25     25  C        0  -0.996572          1.100816         -2.175061
     26     26  C        0   0.165042          0.767140         -1.612177
     27     27  H        0   1.004428          1.445574         -1.647131
     28     28  C        0  -1.159385          2.432776         -2.813065
     29     29  O        0  -0.470858          3.383993         -2.527591
     30     30  N        0  -2.283917          2.555832         -3.691973
     31     31  H        0  -2.173246          3.401553         -4.262024
     32     32  H        0  -2.367162          1.743849         -4.310238
     33     33  C        0   0.709076          2.052629          3.782247
     34     34  C        0  -1.050913          2.084707          1.707411
     35     35  C        0  -1.820815          2.800243          0.687177
     36     36  C        0  -3.818290          3.163445         -0.718162
     37     37  C        0  -2.983520          2.384240          0.220245
     38     38  O        0  -1.191668          0.905511          2.016166
     39     39  S        0   0.066187          3.132579          2.496802
     40     40  H        0  -0.135325          1.610043          4.310238
     41     41  H        0   1.289104          1.258304          3.316277
     42     42  H        0  -3.899603          2.655254         -1.675848
     43     43  H        0  -3.388209          4.144879         -0.891517
     44     44  H        0  -4.823722          3.283910         -0.315291
     45     45  H        0  -3.418907          1.477267          0.625815
     46     46  H        0  -1.388011          3.732208          0.353778
     47     47  H        0   2.652294         -4.309460         -0.319215
     48     48  H        0   1.340914          2.596746          4.484256
 ---------------------------------------------------------------------------------------------------
                         Z-Matrix orientation:                         
 ---------------------------------------------------------------------
 Center     Atomic      Atomic             Coordinates (Angstroms)
 Number     Number       Type             X           Y           Z
 ---------------------------------------------------------------------
      1          6           0        3.537466   -3.793025   -0.690517
      2          1           0        3.645158   -3.957972   -1.758619
      3          1           0        4.427540   -4.144879   -0.176534
      4          6           0        1.669414   -1.423461    0.976086
      5          1           0        0.992999   -2.299604    0.951630
      6          8           0        1.369201   -0.573725    2.046623
      7          1           0        0.459560   -0.264204    1.943923
      8          6           0        3.128199   -1.915981    1.042327
      9          1           0        3.222405   -2.797270    1.699526
     10          8           0        3.899378   -0.837641    1.504814
     11          1           0        4.823722   -1.109974    1.511821
     12          6           0        1.680211   -0.773568   -0.429061
     13          1           0        2.240390    0.169837   -0.341598
     14          6           0        3.423153   -2.293153   -0.446766
     15          1           0        4.374296   -1.828279   -0.743032
     16          8           0        2.371204   -1.713548   -1.236427
     17          7           0        0.367841   -0.452607   -0.981828
     18          6           0       -0.563473   -1.463491   -1.225015
     19          1           0       -0.245391   -2.471629   -0.999273
     20          6           0       -1.751341   -1.197620   -1.733073
     21          1           0       -2.430483   -1.999487   -1.968680
     22          6           0       -2.190658    0.204732   -2.002722
     23          1           0       -2.838598    0.221201   -2.877147
     24          1           0       -2.788005    0.623965   -1.140556
     25          6           0       -0.996572    1.100816   -2.175061
     26          6           0        0.165042    0.767140   -1.612177
     27          1           0        1.004428    1.445574   -1.647131
     28          6           0       -1.159385    2.432776   -2.813065
     29          8           0       -0.470858    3.383993   -2.527591
     30          7           0       -2.283917    2.555832   -3.691973
     31          1           0       -2.173246    3.401553   -4.262024
     32          1           0       -2.367162    1.743849   -4.310238
     33          6           0        0.709076    2.052629    3.782247
     34          6           0       -1.050913    2.084707    1.707411
     35          6           0       -1.820815    2.800243    0.687177
     36          6           0       -3.818290    3.163445   -0.718162
     37          6           0       -2.983520    2.384240    0.220245
     38          8           0       -1.191668    0.905511    2.016166
     39         16           0        0.066187    3.132579    2.496802
     40          1           0       -0.135325    1.610043    4.310238
     41          1           0        1.289104    1.258304    3.316277
     42          1           0       -3.899603    2.655254   -1.675848
     43          1           0       -3.388209    4.144879   -0.891517
     44          1           0       -4.823722    3.283910   -0.315291
     45          1           0       -3.418907    1.477267    0.625815
     46          1           0       -1.388011    3.732208    0.353778
     47          1           0        2.652294   -4.309460   -0.319215
     48          1           0        1.340914    2.596746    4.484256
 ---------------------------------------------------------------------
                    Distance matrix (angstroms):
                    1          2          3          4          5
     1  C    0.000000
     2  H    1.086115   0.000000
     3  H    1.086375   1.774838   0.000000
     4  C    3.447030   4.219706   4.042512   0.000000
     5  H    3.376576   4.138789   4.058801   1.107141   0.000000
     6  O    4.749442   5.577900   5.200865   1.399367   2.078268
     7  H    5.372742   6.123787   5.941451   1.935027   2.326382
     8  C    2.587188   3.504607   2.853401   1.541109   2.171283
     9  H    2.608275   3.672154   2.605379   2.196019   2.403596
    10  O    3.699291   4.522288   3.747494   2.365476   3.300058
    11  H    3.701825   4.493983   3.495447   3.214802   4.050120
    12  C    3.554557   3.971041   4.356297   1.548198   2.169644
    13  H    4.184307   4.584771   4.840211   2.144972   3.053942
    14  C    1.523843   2.131165   2.123843   2.420015   2.803783
    15  H    2.136181   2.469545   2.385454   3.230423   3.811456
    16  O    2.445896   2.633074   3.356078   2.339204   2.651510
    17  N    4.614085   4.861254   5.546397   2.543634   2.745993
    18  C    4.746590   4.921356   5.761889   3.135639   2.803475
    19  H    4.018883   4.233460   5.031197   2.944007   2.317158
    20  C    5.982853   6.061550   7.020521   4.369452   3.994171
    21  H    6.361360   6.386955   7.405874   5.080611   4.509824
    22  C    7.107415   7.172478   8.127399   5.140473   5.013538
    23  H    7.845353   7.794593   8.896782   6.154225   5.974540
    24  H    7.728125   7.922230   8.702603   5.342350   5.217326
    25  C    6.834548   6.878256   7.805922   4.838304   5.029656
    26  C    5.746113   5.870208   6.660172   3.709579   4.082100
    27  H    5.896975   6.015329   6.718148   3.943962   4.558514
    28  C    8.082464   8.064561   9.023889   6.101667   6.418809
    29  O    8.423247   8.452062   9.284702   6.322036   6.822839
    30  N    9.121690   9.017839  10.114420   7.297560   7.475058
    31  H    9.855448   9.709967  10.826368   8.092256   8.349281
    32  H    8.867016   8.670035   9.896090   7.366887   7.438242
    33  C    7.885244   8.686143   8.240632   4.569463   5.199513
    34  C    7.832689   8.401215   8.507081   4.499140   4.896015
    35  C    8.606997   9.029521   9.382039   5.486788   5.830603
    36  C   10.124248  10.368229  11.031712   7.350175   7.468709
    37  C    9.028364   9.385037   9.884869   6.059676   6.187570
    38  O    7.194935   7.829263   7.867012   3.832971   4.022284
    39  S    8.376919   9.010746   8.895477   5.063636   5.723211
    40  H    8.227399   9.062332   8.606392   4.855492   5.276240
    41  H    6.828284   7.649516   7.158485   3.579525   4.282283
    42  H    9.892481  10.033196  10.855001   7.394770   7.442567
    43  H   10.536398  10.764585  11.415656   7.750735   8.007717
    44  H   10.960533  11.236102  11.865581   8.123289   8.161799
    45  H    8.826088   9.226502   9.686021   5.867531   5.816857
    46  H    9.054281   9.430476   9.805629   6.026279   6.512249
    47  H    1.090000   1.783594   1.788558   3.312528   2.899625
    48  H    8.510716   9.340629   8.757838   5.345768   6.047705
                    6          7          8          9         10
     6  O    0.000000
     7  H    0.966332   0.000000
     8  C    2.429883   3.265405   0.000000
     9  H    2.915303   3.756257   1.103384   0.000000
    10  O    2.600961   3.514824   1.404076   2.082391   0.000000
    11  H    3.536565   4.466313   1.935167   2.333756   0.963653
    12  C    2.503133   2.716706   2.359398   3.317321   2.944262
    13  H    2.648670   2.929736   2.655953   3.732863   2.678896
    14  C    3.659527   4.314500   1.564179   2.213821   2.480720
    15  H    4.287968   4.999121   2.178981   2.869127   2.501943
    16  O    3.616852   3.983667   2.409718   3.243272   3.258363
    17  N    3.192006   2.933245   3.722666   4.564607   4.336287
    18  C    3.902631   3.539358   4.355919   4.966365   5.268841
    19  H    3.935280   3.745942   3.982208   4.406264   5.110721
    20  C    4.940965   4.390860   5.659399   6.251382   6.522585
    21  H    5.709033   5.164496   6.322348   6.785819   7.313151
    22  C    5.447548   4.776982   6.485367   7.212483   7.104778
    23  H    6.525411   5.861414   7.452012   8.172690   8.106975
    24  H    5.373540   4.566129   6.798365   7.476359   7.338621
    25  C    5.120897   4.577076   6.038740   6.928728   6.424127
    26  C    4.078570   3.714332   4.798524   5.746292   5.122130
    27  H    4.225452   4.014460   4.800379   5.841341   4.850625
    28  C    6.248949   5.702949   7.222127   8.180278   7.411531
    29  O    6.322403   5.845465   7.333979   8.349654   7.292561
    30  N    7.488049   6.873325   8.467686   9.383153   8.761015
    31  H    8.255349   7.673540   9.193347  10.152760   9.386370
    32  H    7.729245   7.151025   8.499606   9.379887   8.930198
    33  C    3.216503   2.968065   5.395292   5.846030   4.870152
    34  C    3.610994   2.802651   5.823471   6.488067   5.752090
    35  C    4.838177   4.021238   6.845556   7.602044   6.828128
    36  C    6.965668   6.093888   8.783712   9.536599   8.972887
    37  C    5.570583   4.673341   7.518033   8.218870   7.707458
    38  O    2.957553   2.024848   5.250755   5.770173   5.405442
    39  S    3.954389   3.463893   6.081066   6.764648   5.607141
    40  H    3.486603   3.076709   5.810566   6.124915   5.490027
    41  H    2.230419   2.211229   4.316156   4.774853   3.806299
    42  H    7.214110   6.374031   8.813323   9.583640   9.118169
    43  H    7.316477   6.502696   9.106994   9.930113   9.147503
    44  H    7.668917   6.753239   9.597658  10.284960   9.817965
    45  H    5.399189   4.451138   7.385946   7.970668   7.725847
    46  H    5.386000   4.681174   7.264454   8.105619   7.082717
    47  H    4.604262   5.127764   2.794463   2.585935   4.115316
    48  H    3.999343   3.926209   5.950291   6.355324   5.217071
                   11         12         13         14         15
    11  H    0.000000
    12  C    3.709698   0.000000
    13  H    3.427343   1.100665   0.000000
    14  C    2.682829   2.312422   2.734284   0.000000
    15  H    2.408798   2.910170   2.950791   1.099343   0.000000
    16  O    3.732562   1.418758   2.089251   1.437394   2.066151
    17  N    5.148329   1.459754   2.074553   3.606775   4.242779
    18  C    6.052861   2.478640   3.363010   4.145744   4.974630
    19  H    5.818557   2.629923   3.686325   3.714206   4.671302
    20  C    7.332700   3.695378   4.442979   5.443360   6.237094
    21  H    8.094975   4.557533   5.400965   6.055371   6.916397
    22  C    7.954998   4.291515   4.732308   6.338398   6.987029
    23  H    8.930074   5.234723   5.676951   7.172046   7.796195
    24  H    8.245001   4.735428   5.111685   6.897057   7.580902
    25  C    7.235781   3.704996   3.834871   5.834380   6.283035
    26  C    5.914916   2.463592   2.505637   4.619401   5.020900
    27  H    5.576452   2.620108   2.204433   4.611852   4.784508
    28  C    8.188608   4.901778   4.773627   6.995243   7.284453
    29  O    8.034001   5.129936   4.739223   7.191880   7.336753
    30  N    9.541287   6.119298   6.114519   8.161781   8.499911
    31  H   10.131571   6.853640   6.730076   8.849042   9.088716
    32  H    9.682432   6.146719   6.281493   8.046834   8.422132
    33  C    5.664557   5.163875   4.784968   6.643537   6.998102
    34  C    6.689961   4.493694   4.324100   6.619924   7.123835
    35  C    7.753690   5.125943   4.946797   7.397817   7.864357
    36  C    9.895419   6.768838   6.768389   9.071197   9.593560
    37  C    8.650476   5.669544   5.701621   7.960424   8.532917
    38  O    6.364076   4.128696   4.228391   6.131399   6.787248
    39  S    6.450084   5.140401   4.643437   7.026548   7.325738
    40  H    6.310451   5.607025   5.418283   7.108220   7.595675
    41  H    4.621508   4.278905   3.933161   5.597098   5.960151
    42  H   10.021705   6.666755   6.756999   8.923010   9.456723
    43  H   10.041181   7.077702   6.912633   9.383000   9.795772
    44  H   10.757219   7.666630   7.720093   9.956499  10.531903
    45  H    8.684455   5.672743   5.888370   7.885447   8.575219
    46  H    7.960743   5.507163   5.132186   7.751976   8.082462
    47  H    4.278376   3.668725   4.498251   2.162403   3.049782
    48  H    5.891103   5.967815   5.476113   7.249952   7.490447
                   16         17         18         19         20
    16  O    0.000000
    17  N    2.380810   0.000000
    18  C    2.945334   1.395842   0.000000
    19  H    2.734501   2.110168   1.080962   0.000000
    20  C    4.184282   2.368618   1.319030   2.104626   0.000000
    21  H    4.865609   3.346242   2.079917   2.436657   1.076909
    22  C    5.007753   2.832002   2.456731   3.457439   1.494089
    23  H    5.794588   3.785169   3.277792   4.183596   2.122283
    24  H    5.664856   3.338198   3.051745   4.008435   2.178055
    25  C    4.488162   2.387164   2.768724   3.835246   2.459235
    26  C    3.340981   1.387894   2.378307   3.321706   2.747257
    27  H    3.466526   2.109730   3.331539   4.162481   3.819440
    28  C    5.669467   3.743165   4.249460   5.308335   3.833611
    29  O    5.977403   4.220462   5.020297   6.055981   4.823078
    30  N    6.776981   4.840188   5.020037   6.056533   4.267239
    31  H    7.481345   5.663158   5.956798   6.989738   5.265547
    32  H    6.622237   4.835595   4.801971   5.764951   3.958946
    33  C    6.491059   5.393427   6.249412   6.651530   6.858318
    34  C    5.899475   3.960155   4.628869   5.360523   4.806371
    35  C    6.453494   4.261083   4.839093   5.754886   4.673902
    36  C    7.897056   5.537964   5.679725   6.678226   4.931655
    37  C    6.898321   4.552395   4.769742   5.706491   4.261859
    38  O    5.489343   3.642049   4.063503   4.625299   4.335112
    39  S    6.537205   5.004539   5.947457   6.612622   6.320275
    40  H    6.935016   5.702075   6.345782   6.697990   6.856828
    41  H    5.543461   4.716953   5.609238   5.906865   6.385281
    42  H    7.655230   5.324617   5.319499   6.332137   4.411683
    43  H    8.222589   5.937419   6.288415   7.325783   5.650651
    44  H    8.808521   6.431031   6.443224   7.386148   5.615492
    45  H    6.868379   4.544049   4.497458   5.320328   3.937023
    46  H    6.805638   4.730701   5.492517   6.451661   5.365647
    47  H    2.767498   4.531346   4.388755   3.498096   5.574455
    48  H    7.236460   6.334311   7.260027   7.633733   7.912929
                   21         22         23         24         25
    21  H    0.000000
    22  C    2.217489   0.000000
    23  H    2.433788   1.088447   0.000000
    24  H    2.774187   1.129562   1.783403   0.000000
    25  C    3.422071   1.502833   2.158635   2.122926   0.000000
    26  C    3.810258   2.453191   3.304550   2.993895   1.333238
    27  H    4.875495   3.445969   4.216737   3.913336   2.097991
    28  C    4.687604   2.585413   2.777576   2.953216   1.485825
    29  O    5.756246   3.652519   3.966312   3.861449   2.369293
    30  N    4.872592   2.896539   2.534189   3.239745   2.464823
    31  H    5.873400   3.914641   3.532027   4.223326   3.321652
    32  H    4.415820   2.779328   2.143469   3.387939   2.617439
    33  C    7.703871   6.729713   7.764512   6.205211   6.269346
    34  C    5.665465   4.312587   5.261810   3.641726   4.005569
    35  C    5.519301   3.756197   4.515722   3.002041   3.429262
    36  C    5.490508   3.612930   3.778600   2.772880   3.786699
    37  C    4.930954   3.212548   3.780685   2.233512   3.366397
    38  O    5.084552   4.200063   5.208183   3.548585   4.200308
    39  S    7.246516   5.823345   6.767069   5.260221   5.204212
    40  H    7.597451   6.786218   7.803529   6.141678   6.562024
    41  H    7.237355   6.442865   7.514786   6.073596   5.950119
    42  H    4.889855   3.005394   2.914355   2.376620   3.330627
    43  H    6.311161   4.265403   4.431709   3.580377   4.078447
    44  H    6.031217   4.388825   4.459149   3.449713   4.782439
    45  H    4.449292   3.168145   3.766324   2.060637   3.722139
    46  H    6.271594   4.317455   4.987008   3.722122   3.670487
    47  H    5.821627   6.831274   7.564377   7.389867   6.784502
    48  H    8.774348   7.763673   8.792144   7.251093   7.214441
                   26         27         28         29         30
    26  C    0.000000
    27  H    1.079844   0.000000
    28  C    2.443477   2.648784   0.000000
    29  O    2.844340   2.590202   1.208461   0.000000
    30  N    3.677277   4.028308   1.432548   2.308423   0.000000
    31  H    4.407880   4.556438   2.016414   2.430369   1.025889
    32  H    3.826950   4.306823   2.043250   3.076341   1.023962
    33  C    5.572097   5.471188   6.865406   6.555824   8.066919
    34  C    3.772823   3.985708   4.535154   4.467645   5.558382
    35  C    3.655703   3.907188   3.581092   3.535234   4.410347
    36  C    4.733759   5.203141   3.462986   3.811558   3.401036
    37  C    3.985752   4.502434   3.539886   3.855331   3.977982
    38  O    3.876169   4.305143   5.065082   5.225722   6.041475
    39  S    4.742234   4.571484   5.494219   5.059264   6.645040
    40  H    5.989633   6.067647   7.243414   7.072156   8.339445
    41  H    5.078821   4.975092   6.703978   6.462725   7.972806
    42  H    4.482227   5.051105   2.975156   3.607328   2.585553
    43  H    4.955205   5.210802   3.404600   3.430251   3.403981
    44  H    5.736184   6.254647   4.515603   4.883821   4.287504
    45  H    4.284574   4.973246   4.224255   4.719169   4.592907
    46  H    3.881827   3.867312   3.430698   3.043799   4.307506
    47  H    5.799142   6.131822   8.136703   8.591870   9.103511
    48  H    6.472761   6.247587   7.715522   7.284798   8.943814
                   31         32         33         34         35
    31  H    0.000000
    32  H    1.669704   0.000000
    33  C    8.650877   8.662961   0.000000
    34  C    6.215132   6.169343   2.720944   0.000000
    35  C    4.998037   5.136986   4.066784   1.464793   0.000000
    36  C    3.914310   4.126020   6.479555   3.834769   2.469170
    37  C    4.667141   4.616847   5.141311   2.456899   1.320215
    38  O    6.827107   6.489067   2.836855   1.227047   2.398343
    39  S    7.125247   7.361084   1.797767   1.723103   2.635519
    40  H    8.991458   8.905707   1.089803   2.799699   4.169415
    41  H    8.603025   8.471586   1.088353   2.957545   4.354462
    42  H    3.197745   3.181045   7.168952   4.459484   3.150598
    43  H    3.659097   4.300598   6.558149   4.057300   2.599431
    44  H    4.755582   4.936201   6.994121   4.445616   3.202551
    45  H    5.398659   5.053895   5.228226   2.673243   2.075556
    46  H    4.693779   5.163851   4.355819   2.158753   1.080292
    47  H    9.914197   8.818489   7.815002   7.662005   8.459870
    48  H    9.460151   9.582296   1.090000   3.700526   4.945275
                   36         37         38         39         40
    36  C    0.000000
    37  C    1.478042   0.000000
    38  O    4.412931   2.936444   0.000000
    39  S    5.042430   3.878586   2.602507   0.000000
    40  H    6.423557   5.043772   2.622021   2.376399   0.000000
    41  H    6.781720   5.395226   2.822939   2.383269   1.772196
    42  H    1.087213   2.123164   4.901579   5.776360   7.148110
    43  H    1.085465   2.121235   4.875748   4.943511   6.638139
    44  H    1.089822   2.117204   4.927910   5.642870   6.795471
    45  H    2.192938   1.084735   2.687112   4.287951   4.937055
    46  H    2.716395   2.092963   3.285164   2.658345   4.661156
    47  H    9.893024   8.766928   6.886652   8.366710   8.015184
    48  H    7.348720   6.076815   3.919913   2.421161   1.784138
                   41         42         43         44         45
    41  H    0.000000
    42  H    7.334539   0.000000
    43  H    6.922073   1.759455   0.000000
    44  H    7.393106   1.760772   1.770311   0.000000
    45  H    5.426960   2.629900   3.069103   2.474500   0.000000
    46  H    4.697185   3.404013   2.392038   3.528844   3.046851
    47  H    6.787863   9.657901  10.406298  10.655989   8.440306
    48  H    1.777156   8.087850   7.325316   7.842869   6.228699
                   46         47         48
    46  H    0.000000
    47  H    9.024711   0.000000
    48  H    5.079090   8.514031   0.000000
 Symmetry turned off by external request.
 Stoichiometry    C16H24N2O5S
 Framework group  C1[X(C16H24N2O5S)]
 Deg. of freedom   138
 Full point group                 C1      NOp   1
 Rotational constants (GHZ):           0.2811569           0.1650197           0.1216909
 Leave Link  202 at Sun Apr  9 09:30:04 2023, MaxMem=  2684354560 cpu:               0.1 elap:               0.0
 (Enter /opt/gaussian/g16/l301.exe)
 Standard basis: def2TZVP (5D, 7F)
 Ernie: Thresh=  0.10000D-02 Tol=  0.10000D-05 Strict=F.
   894 basis functions,  1434 primitive gaussians,  1014 cartesian basis functions
    95 alpha electrons       95 beta electrons
       nuclear repulsion energy      2412.8785212008 Hartrees.
 IExCor= 4336 DFT=T Ex+Corr=M062X ExCW=0 ScaHFX=  0.540000
 ScaDFX=  1.000000  1.000000  1.000000  1.000000 ScalE2=  1.000000  1.000000
 IRadAn=      5 IRanWt=     -1 IRanGd=            0 ICorTp=0 IEmpDi=131
 NAtoms=   48 NActive=   48 NUniq=   48 SFac= 1.00D+00 NAtFMM=   60 NAOKFM=F Big=F
 Integral buffers will be    131072 words long.
 Raffenetti 2 integral format.
 Two-electron integral symmetry is turned off.
 R6Disp:  Grimme-D3 Dispersion energy=       -0.0041819396 Hartrees.
 Nuclear repulsion after empirical dispersion term =     2412.8743392612 Hartrees.
 Leave Link  301 at Sun Apr  9 09:30:05 2023, MaxMem=  2684354560 cpu:               0.9 elap:               0.1
 (Enter /opt/gaussian/g16/l302.exe)
 NPDir=0 NMtPBC=     1 NCelOv=     1 NCel=       1 NClECP=     1 NCelD=      1
         NCelK=      1 NCelE2=     1 NClLst=     1 CellRange=     0.0.
 One-electron integrals computed using PRISM.
   1 Symmetry operations used in ECPInt.
 ECPInt:  NShTT=   65703 NPrTT=  200010 LenC2=   55745 LenP2D=  117759.
 LDataN:  DoStor=T MaxTD1= 6 Len=  172
 NBasis=   894 RedAO= T EigKep=  3.40D-05  NBF=   894
 NBsUse=   894 1.00D-06 EigRej= -1.00D+00 NBFU=   894
 Precomputing XC quadrature grid using
 IXCGrd= 4 IRadAn=           5 IRanWt=          -1 IRanGd=           0 AccXCQ= 0.00D+00.
 Generated NRdTot=       0 NPtTot=           0 NUsed=           0 NTot=          32
 NSgBfM=   996   996   996   996   996 MxSgAt=    48 MxSgA2=    48.
 Leave Link  302 at Sun Apr  9 09:30:07 2023, MaxMem=  2684354560 cpu:              40.8 elap:               2.6
 (Enter /opt/gaussian/g16/l303.exe)
 DipDrv:  MaxL=1.
 Leave Link  303 at Sun Apr  9 09:30:08 2023, MaxMem=  2684354560 cpu:               4.6 elap:               0.3
 (Enter /opt/gaussian/g16/l401.exe)
 ExpMin= 9.52D-02 ExpMax= 6.07D+04 ExpMxC= 2.07D+03 IAcc=3 IRadAn=         5 AccDes= 0.00D+00
 Harris functional with IExCor= 1009 and IRadAn=       5 diagonalized for initial guess.
 HarFok:  IExCor= 1009 AccDes= 0.00D+00 IRadAn=         5 IDoV= 1 UseB2=F ITyADJ=14
 ICtDFT=  3500011 ScaDFX=  1.000000  1.000000  1.000000  1.000000
 FoFCou: FMM=F IPFlag=           0 FMFlag=      100000 FMFlg1=           0
         NFxFlg=           0 DoJE=T BraDBF=F KetDBF=T FulRan=T
         wScrn=  0.000000 ICntrl=       500 IOpCl=  0 I1Cent=   200000004 NGrid=           0
         NMat0=    1 NMatS0=      1 NMatT0=    0 NMatD0=    1 NMtDS0=    0 NMtDT0=    0
 Symmetry not used in FoFCou.
 Harris En= -1507.24171066843    
 JPrj=0 DoOrth=F DoCkMO=F.
 Leave Link  401 at Sun Apr  9 09:30:16 2023, MaxMem=  2684354560 cpu:             131.0 elap:               8.2
 (Enter /opt/gaussian/g16/l502.exe)
 Two-electron integral symmetry not used.
 Closed shell SCF:
 Using DIIS extrapolation, IDIIS=  1040.
 NGot=  2684354560 LenX=  2682275214 LenY=  2681246004
 Requested convergence on RMS density matrix=1.00D-08 within 128 cycles.
 Requested convergence on MAX density matrix=1.00D-06.
 Requested convergence on             energy=1.00D-06.
 No special actions if energy rises.
 Fock matrices will be formed incrementally for  20 cycles.
 Integral accuracy reduced to 1.0D-05 until final iterations.

 Cycle   1  Pass 0  IDiag  1:
 FoFJK:  IHMeth= 1 ICntrl=       0 DoSepK=F KAlg= 0 I1Cent=           0 FoldK=F
 IRaf= 770000000 NMat=       1 IRICut=       1 DoRegI=T DoRafI=F ISym2E= 0 IDoP0=0 IntGTp=1.
 FoFCou: FMM=F IPFlag=           0 FMFlag=      100000 FMFlg1=           0
         NFxFlg=           0 DoJE=F BraDBF=F KetDBF=F FulRan=T
         wScrn=  0.000000 ICntrl=         0 IOpCl=  0 I1Cent=           0 NGrid=           0
         NMat0=    1 NMatS0=      1 NMatT0=    0 NMatD0=    1 NMtDS0=    0 NMtDT0=    0
 Symmetry not used in FoFCou.
 E= -1507.13362421745    
 DIIS: error= 1.62D-02 at cycle   1 NSaved=   1.
 NSaved= 1 IEnMin= 1 EnMin= -1507.13362421745     IErMin= 1 ErrMin= 1.62D-02
 ErrMax= 1.62D-02  0.00D+00 EMaxC= 1.00D-01 BMatC= 1.02D+00 BMatP= 1.02D+00
 IDIUse=3 WtCom= 8.38D-01 WtEn= 1.62D-01
 Coeff-Com:  0.100D+01
 Coeff-En:   0.100D+01
 Coeff:      0.100D+01
 Gap=     0.336 Goal=   None    Shift=    0.000
 GapD=    0.336 DampG=1.000 DampE=0.500 DampFc=0.5000 IDamp=-1.
 Damping current iteration by 5.00D-01
 RMSDP=3.57D-03 MaxDP=1.04D+00              OVMax= 2.53D-01

 Cycle   2  Pass 0  IDiag  1:
 RMSU=  1.78D-03    CP:  1.01D+00
 E= -1507.47889514148     Delta-E=       -0.345270924031 Rises=F Damp=T
 DIIS: error= 4.44D-03 at cycle   2 NSaved=   2.
 NSaved= 2 IEnMin= 2 EnMin= -1507.47889514148     IErMin= 2 ErrMin= 4.44D-03
 ErrMax= 4.44D-03  0.00D+00 EMaxC= 1.00D-01 BMatC= 9.22D-02 BMatP= 1.02D+00
 IDIUse=3 WtCom= 9.56D-01 WtEn= 4.44D-02
 Coeff-Com:  0.569D-02 0.994D+00
 Coeff-En:   0.588D-01 0.941D+00
 Coeff:      0.805D-02 0.992D+00
 Gap=     0.329 Goal=   None    Shift=    0.000
 RMSDP=1.16D-03 MaxDP=3.32D-01 DE=-3.45D-01 OVMax= 1.88D-01

 Cycle   3  Pass 0  IDiag  1:
 RMSU=  9.58D-04    CP:  9.95D-01  6.39D-01
 E= -1507.85415674722     Delta-E=       -0.375261605732 Rises=F Damp=F
 DIIS: error= 7.67D-03 at cycle   3 NSaved=   3.
 NSaved= 3 IEnMin= 3 EnMin= -1507.85415674722     IErMin= 2 ErrMin= 4.44D-03
 ErrMax= 7.67D-03  0.00D+00 EMaxC= 1.00D-01 BMatC= 5.99D-02 BMatP= 9.22D-02
 IDIUse=3 WtCom= 9.23D-01 WtEn= 7.67D-02
 Coeff-Com: -0.754D-01 0.464D+00 0.611D+00
 Coeff-En:   0.000D+00 0.000D+00 0.100D+01
 Coeff:     -0.697D-01 0.429D+00 0.641D+00
 Gap=     0.225 Goal=   None    Shift=    0.000
 RMSDP=3.64D-04 MaxDP=3.38D-02 DE=-3.75D-01 OVMax= 7.76D-02

 Cycle   4  Pass 0  IDiag  1:
 RMSU=  3.28D-04    CP:  9.97D-01  7.18D-01  9.26D-01
 E= -1507.89258647274     Delta-E=       -0.038429725521 Rises=F Damp=F
 DIIS: error= 4.02D-03 at cycle   4 NSaved=   4.
 NSaved= 4 IEnMin= 4 EnMin= -1507.89258647274     IErMin= 4 ErrMin= 4.02D-03
 ErrMax= 4.02D-03  0.00D+00 EMaxC= 1.00D-01 BMatC= 1.30D-02 BMatP= 5.99D-02
 IDIUse=3 WtCom= 9.60D-01 WtEn= 4.02D-02
 Coeff-Com: -0.328D-01 0.925D-01 0.352D+00 0.589D+00
 Coeff-En:   0.000D+00 0.000D+00 0.158D+00 0.842D+00
 Coeff:     -0.315D-01 0.888D-01 0.344D+00 0.599D+00
 Gap=     0.225 Goal=   None    Shift=    0.000
 RMSDP=1.23D-04 MaxDP=1.37D-02 DE=-3.84D-02 OVMax= 1.96D-02

 Cycle   5  Pass 0  IDiag  1:
 RMSU=  7.72D-05    CP:  9.96D-01  7.12D-01  9.57D-01  7.23D-01
 E= -1507.90215079206     Delta-E=       -0.009564319324 Rises=F Damp=F
 DIIS: error= 4.09D-04 at cycle   5 NSaved=   5.
 NSaved= 5 IEnMin= 5 EnMin= -1507.90215079206     IErMin= 5 ErrMin= 4.09D-04
 ErrMax= 4.09D-04  0.00D+00 EMaxC= 1.00D-01 BMatC= 5.03D-04 BMatP= 1.30D-02
 IDIUse=3 WtCom= 9.96D-01 WtEn= 4.09D-03
 Coeff-Com: -0.854D-02 0.132D-01 0.120D+00 0.269D+00 0.607D+00
 Coeff-En:   0.000D+00 0.000D+00 0.000D+00 0.000D+00 0.100D+01
 Coeff:     -0.850D-02 0.132D-01 0.119D+00 0.268D+00 0.608D+00
 Gap=     0.225 Goal=   None    Shift=    0.000
 RMSDP=4.55D-05 MaxDP=1.16D-02 DE=-9.56D-03 OVMax= 4.36D-03

 Cycle   6  Pass 0  IDiag  1:
 RMSU=  3.14D-05    CP:  9.96D-01  6.97D-01  9.69D-01  7.52D-01  8.64D-01
 E= -1507.90254525142     Delta-E=       -0.000394459358 Rises=F Damp=F
 DIIS: error= 1.90D-04 at cycle   6 NSaved=   6.
 NSaved= 6 IEnMin= 6 EnMin= -1507.90254525142     IErMin= 6 ErrMin= 1.90D-04
 ErrMax= 1.90D-04  0.00D+00 EMaxC= 1.00D-01 BMatC= 5.73D-05 BMatP= 5.03D-04
 IDIUse=3 WtCom= 9.98D-01 WtEn= 1.90D-03
 Coeff-Com:  0.775D-03-0.587D-02 0.950D-02 0.396D-01 0.264D+00 0.692D+00
 Coeff-En:   0.000D+00 0.000D+00 0.000D+00 0.000D+00 0.000D+00 0.100D+01
 Coeff:      0.774D-03-0.586D-02 0.948D-02 0.396D-01 0.264D+00 0.692D+00
 Gap=     0.226 Goal=   None    Shift=    0.000
 RMSDP=1.77D-05 MaxDP=1.25D-03 DE=-3.94D-04 OVMax= 2.45D-03

 Cycle   7  Pass 0  IDiag  1:
 RMSU=  1.57D-05    CP:  9.96D-01  6.95D-01  9.74D-01  7.61D-01  9.31D-01
                    CP:  9.89D-01
 E= -1507.90261685894     Delta-E=       -0.000071607526 Rises=F Damp=F
 DIIS: error= 5.75D-05 at cycle   7 NSaved=   7.
 NSaved= 7 IEnMin= 7 EnMin= -1507.90261685894     IErMin= 7 ErrMin= 5.75D-05
 ErrMax= 5.75D-05  0.00D+00 EMaxC= 1.00D-01 BMatC= 9.17D-06 BMatP= 5.73D-05
 IDIUse=1 WtCom= 1.00D+00 WtEn= 0.00D+00
 Coeff-Com:  0.174D-02-0.481D-02-0.125D-01-0.252D-01 0.124D-01 0.280D+00
 Coeff-Com:  0.748D+00
 Coeff:      0.174D-02-0.481D-02-0.125D-01-0.252D-01 0.124D-01 0.280D+00
 Coeff:      0.748D+00
 Gap=     0.226 Goal=   None    Shift=    0.000
 RMSDP=1.54D-05 MaxDP=4.26D-03 DE=-7.16D-05 OVMax= 2.14D-03

 Cycle   8  Pass 0  IDiag  1:
 RMSU=  9.99D-06    CP:  9.95D-01  6.90D-01  9.76D-01  7.67D-01  9.86D-01
                    CP:  1.16D+00  1.20D+00
 E= -1507.90263249063     Delta-E=       -0.000015631688 Rises=F Damp=F
 DIIS: error= 3.84D-05 at cycle   8 NSaved=   8.
 NSaved= 8 IEnMin= 8 EnMin= -1507.90263249063     IErMin= 8 ErrMin= 3.84D-05
 ErrMax= 3.84D-05  0.00D+00 EMaxC= 1.00D-01 BMatC= 2.15D-06 BMatP= 9.17D-06
 IDIUse=1 WtCom= 1.00D+00 WtEn= 0.00D+00
 Coeff-Com:  0.757D-03-0.130D-02-0.723D-02-0.209D-01-0.426D-01 0.186D-02
 Coeff-Com:  0.360D+00 0.709D+00
 Coeff:      0.757D-03-0.130D-02-0.723D-02-0.209D-01-0.426D-01 0.186D-02
 Coeff:      0.360D+00 0.709D+00
 Gap=     0.226 Goal=   None    Shift=    0.000
 RMSDP=1.22D-05 MaxDP=1.15D-03 DE=-1.56D-05 OVMax= 6.44D-04

 Cycle   9  Pass 0  IDiag  1:
 RMSU=  7.77D-06    CP:  9.95D-01  6.89D-01  9.77D-01  7.67D-01  1.02D+00
                    CP:  1.23D+00  1.61D+00  1.52D+00
 E= -1507.90262764939     Delta-E=        0.000004841247 Rises=F Damp=F
 DIIS: error= 1.75D-05 at cycle   9 NSaved=   9.
 NSaved= 9 IEnMin= 8 EnMin= -1507.90263249063     IErMin= 9 ErrMin= 1.75D-05
 ErrMax= 1.75D-05  0.00D+00 EMaxC= 1.00D-01 BMatC= 2.97D-07 BMatP= 2.15D-06
 IDIUse=1 WtCom= 1.00D+00 WtEn= 0.00D+00
 Coeff-Com:  0.105D-03-0.114D-04-0.998D-03-0.541D-02-0.168D-01-0.320D-01
 Coeff-Com:  0.556D-01 0.271D+00 0.729D+00
 Coeff:      0.105D-03-0.114D-04-0.998D-03-0.541D-02-0.168D-01-0.320D-01
 Coeff:      0.556D-01 0.271D+00 0.729D+00
 Gap=     0.226 Goal=   None    Shift=    0.000
 RMSDP=1.47D-05 MaxDP=1.33D-03 DE= 4.84D-06 OVMax= 2.48D-04

 Cycle  10  Pass 0  IDiag  1:
 RMSU=  4.12D-06    CP:  9.95D-01  6.87D-01  9.79D-01  7.69D-01  1.04D+00
                    CP:  1.29D+00  1.99D+00  2.32D+00  2.16D+00
 E= -1507.90261874500     Delta-E=        0.000008904387 Rises=F Damp=F
 DIIS: error= 2.56D-05 at cycle  10 NSaved=  10.
 NSaved=10 IEnMin= 8 EnMin= -1507.90263249063     IErMin= 9 ErrMin= 1.75D-05
 ErrMax= 2.56D-05  0.00D+00 EMaxC= 1.00D-01 BMatC= 2.93D-07 BMatP= 2.97D-07
 IDIUse=1 WtCom= 1.00D+00 WtEn= 0.00D+00
 Coeff-Com:  0.101D-03-0.119D-04-0.946D-03-0.518D-02-0.160D-01-0.307D-01
 Coeff-Com:  0.531D-01 0.259D+00 0.699D+00 0.424D-01
 Coeff:      0.101D-03-0.119D-04-0.946D-03-0.518D-02-0.160D-01-0.307D-01
 Coeff:      0.531D-01 0.259D+00 0.699D+00 0.424D-01
 Gap=     0.226 Goal=   None    Shift=    0.000
 RMSDP=1.23D-06 MaxDP=1.18D-04 DE= 8.90D-06 OVMax= 3.89D-06

 Initial convergence to 1.0D-05 achieved.  Increase integral accuracy.
 Cycle  11  Pass 1  IDiag  1:
 E= -1507.90258489717     Delta-E=        0.000033847828 Rises=F Damp=F
 DIIS: error= 3.15D-04 at cycle   1 NSaved=   1.
 NSaved= 1 IEnMin= 1 EnMin= -1507.90258489717     IErMin= 1 ErrMin= 3.15D-04
 ErrMax= 3.15D-04  0.00D+00 EMaxC= 1.00D-01 BMatC= 7.92D-05 BMatP= 7.92D-05
 IDIUse=3 WtCom= 9.97D-01 WtEn= 3.15D-03
 Coeff-Com:  0.100D+01
 Coeff-En:   0.100D+01
 Coeff:      0.100D+01
 Gap=     0.226 Goal=   None    Shift=    0.000
 RMSDP=1.23D-06 MaxDP=1.18D-04 DE= 3.38D-05 OVMax= 7.89D-04

 Cycle  12  Pass 1  IDiag  1:
 RMSU=  3.89D-04    CP:  9.97D-01
 E= -1507.90263542142     Delta-E=       -0.000050524252 Rises=F Damp=F
 DIIS: error= 5.63D-06 at cycle   2 NSaved=   2.
 NSaved= 2 IEnMin= 2 EnMin= -1507.90263542142     IErMin= 2 ErrMin= 5.63D-06
 ErrMax= 5.63D-06  0.00D+00 EMaxC= 1.00D-01 BMatC= 8.53D-08 BMatP= 7.92D-05
 IDIUse=1 WtCom= 1.00D+00 WtEn= 0.00D+00
 Coeff-Com: -0.159D-01 0.102D+01
 Coeff:     -0.159D-01 0.102D+01
 Gap=     0.226 Goal=   None    Shift=    0.000
 RMSDP=1.40D-05 MaxDP=1.30D-03 DE=-5.05D-05 OVMax= 8.09D-05

 Cycle  13  Pass 1  IDiag  1:
 RMSU=  4.64D-06    CP:  9.97D-01  1.03D+00
 E= -1507.90263546755     Delta-E=       -0.000000046122 Rises=F Damp=F
 DIIS: error= 4.89D-06 at cycle   3 NSaved=   3.
 NSaved= 3 IEnMin= 3 EnMin= -1507.90263546755     IErMin= 3 ErrMin= 4.89D-06
 ErrMax= 4.89D-06  0.00D+00 EMaxC= 1.00D-01 BMatC= 7.47D-08 BMatP= 8.53D-08
 IDIUse=1 WtCom= 1.00D+00 WtEn= 0.00D+00
 Coeff-Com: -0.895D-02 0.527D+00 0.482D+00
 Coeff:     -0.895D-02 0.527D+00 0.482D+00
 Gap=     0.226 Goal=   None    Shift=    0.000
 RMSDP=4.33D-07 MaxDP=4.81D-05 DE=-4.61D-08 OVMax= 4.13D-05

 Cycle  14  Pass 1  IDiag  1:
 RMSU=  3.68D-07    CP:  9.97D-01  1.03D+00  1.02D+00
 E= -1507.90263552084     Delta-E=       -0.000000053298 Rises=F Damp=F
 DIIS: error= 1.08D-06 at cycle   4 NSaved=   4.
 NSaved= 4 IEnMin= 4 EnMin= -1507.90263552084     IErMin= 4 ErrMin= 1.08D-06
 ErrMax= 1.08D-06  0.00D+00 EMaxC= 1.00D-01 BMatC= 3.21D-09 BMatP= 7.47D-08
 IDIUse=1 WtCom= 1.00D+00 WtEn= 0.00D+00
 Coeff-Com: -0.102D-02 0.496D-01 0.170D+00 0.781D+00
 Coeff:     -0.102D-02 0.496D-01 0.170D+00 0.781D+00
 Gap=     0.226 Goal=   None    Shift=    0.000
 RMSDP=2.75D-07 MaxDP=2.10D-05 DE=-5.33D-08 OVMax= 1.94D-05

 Cycle  15  Pass 1  IDiag  1:
 RMSU=  1.28D-07    CP:  9.97D-01  1.03D+00  1.06D+00  9.79D-01
 E= -1507.90263552295     Delta-E=       -0.000000002110 Rises=F Damp=F
 DIIS: error= 7.28D-07 at cycle   5 NSaved=   5.
 NSaved= 5 IEnMin= 5 EnMin= -1507.90263552295     IErMin= 5 ErrMin= 7.28D-07
 ErrMax= 7.28D-07  0.00D+00 EMaxC= 1.00D-01 BMatC= 9.86D-10 BMatP= 3.21D-09
 IDIUse=1 WtCom= 1.00D+00 WtEn= 0.00D+00
 Coeff-Com:  0.366D-03-0.272D-01 0.417D-01 0.443D+00 0.542D+00
 Coeff:      0.366D-03-0.272D-01 0.417D-01 0.443D+00 0.542D+00
 Gap=     0.226 Goal=   None    Shift=    0.000
 RMSDP=7.13D-08 MaxDP=7.79D-06 DE=-2.11D-09 OVMax= 5.10D-06

 Cycle  16  Pass 1  IDiag  1:
 RMSU=  4.57D-08    CP:  9.97D-01  1.03D+00  1.07D+00  1.03D+00  9.98D-01
 E= -1507.90263552380     Delta-E=       -0.000000000846 Rises=F Damp=F
 DIIS: error= 1.67D-07 at cycle   6 NSaved=   6.
 NSaved= 6 IEnMin= 6 EnMin= -1507.90263552380     IErMin= 6 ErrMin= 1.67D-07
 ErrMax= 1.67D-07  0.00D+00 EMaxC= 1.00D-01 BMatC= 3.85D-11 BMatP= 9.86D-10
 IDIUse=1 WtCom= 1.00D+00 WtEn= 0.00D+00
 Coeff-Com:  0.228D-03-0.148D-01 0.162D-03 0.108D+00 0.199D+00 0.708D+00
 Coeff:      0.228D-03-0.148D-01 0.162D-03 0.108D+00 0.199D+00 0.708D+00
 Gap=     0.226 Goal=   None    Shift=    0.000
 RMSDP=1.61D-08 MaxDP=1.21D-06 DE=-8.46D-10 OVMax= 2.54D-06

 Cycle  17  Pass 1  IDiag  1:
 RMSU=  1.05D-08    CP:  9.97D-01  1.03D+00  1.07D+00  1.04D+00  1.07D+00
                    CP:  1.04D+00
 E= -1507.90263552386     Delta-E=       -0.000000000060 Rises=F Damp=F
 DIIS: error= 6.23D-08 at cycle   7 NSaved=   7.
 NSaved= 7 IEnMin= 7 EnMin= -1507.90263552386     IErMin= 7 ErrMin= 6.23D-08
 ErrMax= 6.23D-08  0.00D+00 EMaxC= 1.00D-01 BMatC= 7.76D-12 BMatP= 3.85D-11
 IDIUse=1 WtCom= 1.00D+00 WtEn= 0.00D+00
 Coeff-Com: -0.197D-05 0.900D-03-0.101D-01-0.576D-01-0.525D-01 0.277D+00
 Coeff-Com:  0.843D+00
 Coeff:     -0.197D-05 0.900D-03-0.101D-01-0.576D-01-0.525D-01 0.277D+00
 Coeff:      0.843D+00
 Gap=     0.226 Goal=   None    Shift=    0.000
 RMSDP=9.21D-09 MaxDP=5.92D-07 DE=-6.00D-11 OVMax= 1.95D-06

 SCF Done:  E(RM062X) =  -1507.90263552     A.U. after   17 cycles
            NFock= 17  Conv=0.92D-08     -V/T= 2.0038
 KE= 1.502153180946D+03 PE=-8.364844849100D+03 EE= 2.941914693370D+03
 Leave Link  502 at Sun Apr  9 09:47:01 2023, MaxMem=  2684354560 cpu:           16077.1 elap:            1005.6
 (Enter /opt/gaussian/g16/l601.exe)
 Copying SCF densities to generalized density rwf, IOpCl= 0 IROHF=0.

 **********************************************************************

            Population analysis using the SCF density.

 **********************************************************************

 Alpha  occ. eigenvalues --  -89.90888 -19.64137 -19.63544 -19.62331 -19.61700
 Alpha  occ. eigenvalues --  -19.59727 -14.79125 -14.76230 -10.64567 -10.64522
 Alpha  occ. eigenvalues --  -10.63192 -10.60132 -10.60092 -10.59854 -10.58237
 Alpha  occ. eigenvalues --  -10.56994 -10.55510 -10.55337 -10.54429 -10.53867
 Alpha  occ. eigenvalues --  -10.53850 -10.53548 -10.52960 -10.52878  -8.26896
 Alpha  occ. eigenvalues --   -6.18831  -6.18599  -6.18420  -1.19061  -1.16514
 Alpha  occ. eigenvalues --   -1.16480  -1.16108  -1.14287  -1.07752  -0.99961
 Alpha  occ. eigenvalues --   -0.92112  -0.91599  -0.89229  -0.88323  -0.87341
 Alpha  occ. eigenvalues --   -0.85808  -0.81680  -0.78600  -0.75399  -0.74704
 Alpha  occ. eigenvalues --   -0.72821  -0.70024  -0.68096  -0.66274  -0.65326
 Alpha  occ. eigenvalues --   -0.63565  -0.62104  -0.61135  -0.59188  -0.58936
 Alpha  occ. eigenvalues --   -0.57411  -0.56273  -0.55584  -0.55197  -0.53926
 Alpha  occ. eigenvalues --   -0.53254  -0.52733  -0.52083  -0.51182  -0.50880
 Alpha  occ. eigenvalues --   -0.50464  -0.49997  -0.49132  -0.48859  -0.48700
 Alpha  occ. eigenvalues --   -0.48385  -0.47454  -0.46903  -0.46566  -0.46380
 Alpha  occ. eigenvalues --   -0.45748  -0.44965  -0.44138  -0.43725  -0.42928
 Alpha  occ. eigenvalues --   -0.42783  -0.42116  -0.41345  -0.40009  -0.38575
 Alpha  occ. eigenvalues --   -0.36299  -0.36093  -0.35264  -0.34258  -0.33516
 Alpha  occ. eigenvalues --   -0.32862  -0.32470  -0.31806  -0.29987  -0.24743
 Alpha virt. eigenvalues --   -0.02144   0.00798   0.04841   0.05409   0.05942
 Alpha virt. eigenvalues --    0.06582   0.06783   0.08356   0.08539   0.08946
 Alpha virt. eigenvalues --    0.09480   0.09677   0.10281   0.10907   0.11265
 Alpha virt. eigenvalues --    0.11999   0.12474   0.12576   0.13017   0.13580
 Alpha virt. eigenvalues --    0.13722   0.14053   0.14286   0.14844   0.15151
 Alpha virt. eigenvalues --    0.15622   0.16144   0.16806   0.17247   0.17712
 Alpha virt. eigenvalues --    0.18322   0.18992   0.19247   0.19328   0.19755
 Alpha virt. eigenvalues --    0.20816   0.20948   0.21639   0.21849   0.22459
 Alpha virt. eigenvalues --    0.22765   0.23210   0.23643   0.24139   0.24690
 Alpha virt. eigenvalues --    0.24882   0.25457   0.26114   0.26476   0.26582
 Alpha virt. eigenvalues --    0.26896   0.27484   0.27634   0.28273   0.29040
 Alpha virt. eigenvalues --    0.29127   0.29960   0.30260   0.30891   0.31310
 Alpha virt. eigenvalues --    0.31541   0.31865   0.32459   0.32713   0.32924
 Alpha virt. eigenvalues --    0.33463   0.34293   0.34551   0.35221   0.35389
 Alpha virt. eigenvalues --    0.36543   0.37000   0.37457   0.37665   0.37896
 Alpha virt. eigenvalues --    0.38671   0.39165   0.39459   0.39928   0.40273
 Alpha virt. eigenvalues --    0.40385   0.40809   0.41177   0.41829   0.42300
 Alpha virt. eigenvalues --    0.42351   0.42580   0.43225   0.43654   0.43729
 Alpha virt. eigenvalues --    0.43926   0.44412   0.45069   0.45330   0.45709
 Alpha virt. eigenvalues --    0.46061   0.46323   0.46675   0.47042   0.47537
 Alpha virt. eigenvalues --    0.47885   0.48655   0.48891   0.49145   0.49500
 Alpha virt. eigenvalues --    0.49909   0.50162   0.50328   0.50630   0.50871
 Alpha virt. eigenvalues --    0.51333   0.51447   0.51560   0.52068   0.52752
 Alpha virt. eigenvalues --    0.52802   0.53291   0.53781   0.54154   0.54561
 Alpha virt. eigenvalues --    0.54650   0.55260   0.56145   0.56447   0.57222
 Alpha virt. eigenvalues --    0.57288   0.57897   0.58160   0.58888   0.59109
 Alpha virt. eigenvalues --    0.59919   0.60429   0.60792   0.61267   0.61639
 Alpha virt. eigenvalues --    0.61813   0.62471   0.63279   0.63645   0.64204
 Alpha virt. eigenvalues --    0.65030   0.65557   0.66044   0.67107   0.67706
 Alpha virt. eigenvalues --    0.67969   0.68631   0.69179   0.69916   0.70725
 Alpha virt. eigenvalues --    0.71439   0.71999   0.72370   0.73110   0.73663
 Alpha virt. eigenvalues --    0.74464   0.74774   0.75385   0.76387   0.77074
 Alpha virt. eigenvalues --    0.77299   0.77953   0.78685   0.79661   0.80000
 Alpha virt. eigenvalues --    0.80791   0.81716   0.82262   0.82733   0.83853
 Alpha virt. eigenvalues --    0.84161   0.85250   0.85395   0.85673   0.86712
 Alpha virt. eigenvalues --    0.87005   0.87657   0.88209   0.88922   0.89667
 Alpha virt. eigenvalues --    0.90724   0.90991   0.91604   0.91905   0.92981
 Alpha virt. eigenvalues --    0.93761   0.93827   0.94975   0.95644   0.96157
 Alpha virt. eigenvalues --    0.96590   0.97415   0.98012   0.98468   0.98799
 Alpha virt. eigenvalues --    0.99232   1.00155   1.02530   1.02651   1.03618
 Alpha virt. eigenvalues --    1.04189   1.04594   1.05307   1.05356   1.05667
 Alpha virt. eigenvalues --    1.06387   1.07104   1.08042   1.08278   1.09258
 Alpha virt. eigenvalues --    1.09831   1.10314   1.11581   1.12153   1.12177
 Alpha virt. eigenvalues --    1.12874   1.13981   1.14463   1.14753   1.15783
 Alpha virt. eigenvalues --    1.16207   1.16885   1.17571   1.18159   1.19250
 Alpha virt. eigenvalues --    1.20609   1.21141   1.21883   1.22371   1.22934
 Alpha virt. eigenvalues --    1.24190   1.25206   1.25303   1.27357   1.27367
 Alpha virt. eigenvalues --    1.28135   1.28531   1.29665   1.31006   1.31624
 Alpha virt. eigenvalues --    1.32144   1.33650   1.34333   1.34586   1.34751
 Alpha virt. eigenvalues --    1.36747   1.37167   1.38281   1.38993   1.40322
 Alpha virt. eigenvalues --    1.40972   1.41155   1.41734   1.42239   1.42865
 Alpha virt. eigenvalues --    1.44333   1.45912   1.47194   1.48487   1.49024
 Alpha virt. eigenvalues --    1.50025   1.51258   1.51571   1.52463   1.53059
 Alpha virt. eigenvalues --    1.53315   1.54511   1.54755   1.55268   1.56103
 Alpha virt. eigenvalues --    1.56333   1.56449   1.56944   1.57300   1.58032
 Alpha virt. eigenvalues --    1.58242   1.58617   1.59256   1.59581   1.60256
 Alpha virt. eigenvalues --    1.60651   1.60816   1.61179   1.61777   1.61947
 Alpha virt. eigenvalues --    1.62638   1.63484   1.63787   1.63968   1.64844
 Alpha virt. eigenvalues --    1.65881   1.66488   1.67026   1.67751   1.67984
 Alpha virt. eigenvalues --    1.68705   1.69250   1.69745   1.70243   1.70357
 Alpha virt. eigenvalues --    1.71459   1.72315   1.73439   1.73667   1.73975
 Alpha virt. eigenvalues --    1.74625   1.75648   1.76525   1.76872   1.77786
 Alpha virt. eigenvalues --    1.77889   1.78228   1.78781   1.79998   1.80655
 Alpha virt. eigenvalues --    1.81440   1.81763   1.82763   1.83047   1.84206
 Alpha virt. eigenvalues --    1.84718   1.85153   1.85851   1.86244   1.86721
 Alpha virt. eigenvalues --    1.87804   1.88306   1.89198   1.90116   1.90591
 Alpha virt. eigenvalues --    1.91440   1.92441   1.92570   1.93577   1.94171
 Alpha virt. eigenvalues --    1.94483   1.95313   1.95840   1.96616   1.98194
 Alpha virt. eigenvalues --    1.98772   1.99106   1.99539   2.00058   2.01103
 Alpha virt. eigenvalues --    2.01679   2.02375   2.03076   2.03282   2.04631
 Alpha virt. eigenvalues --    2.05404   2.06234   2.06834   2.07483   2.08559
 Alpha virt. eigenvalues --    2.09293   2.09631   2.10169   2.10636   2.10666
 Alpha virt. eigenvalues --    2.11623   2.13203   2.13392   2.13712   2.14852
 Alpha virt. eigenvalues --    2.15382   2.16649   2.17067   2.18601   2.19109
 Alpha virt. eigenvalues --    2.19615   2.20475   2.20844   2.21266   2.22517
 Alpha virt. eigenvalues --    2.22657   2.23048   2.24940   2.25807   2.26157
 Alpha virt. eigenvalues --    2.26822   2.27333   2.28066   2.28959   2.29369
 Alpha virt. eigenvalues --    2.30106   2.30370   2.31336   2.31572   2.31818
 Alpha virt. eigenvalues --    2.32107   2.33693   2.33734   2.34402   2.34886
 Alpha virt. eigenvalues --    2.35677   2.36236   2.37411   2.37793   2.38473
 Alpha virt. eigenvalues --    2.39906   2.40761   2.41315   2.41823   2.43285
 Alpha virt. eigenvalues --    2.43987   2.44945   2.45899   2.46338   2.46565
 Alpha virt. eigenvalues --    2.46899   2.47849   2.47946   2.48556   2.49280
 Alpha virt. eigenvalues --    2.50582   2.51377   2.52959   2.53848   2.54575
 Alpha virt. eigenvalues --    2.55684   2.56603   2.56949   2.57565   2.58192
 Alpha virt. eigenvalues --    2.58524   2.59425   2.59759   2.60563   2.60758
 Alpha virt. eigenvalues --    2.61419   2.62048   2.62465   2.63976   2.64073
 Alpha virt. eigenvalues --    2.64415   2.65501   2.65822   2.66267   2.67292
 Alpha virt. eigenvalues --    2.68327   2.68634   2.69233   2.69497   2.69929
 Alpha virt. eigenvalues --    2.70494   2.70989   2.71335   2.72701   2.73059
 Alpha virt. eigenvalues --    2.73818   2.73944   2.74609   2.75732   2.77983
 Alpha virt. eigenvalues --    2.78235   2.78771   2.79261   2.80109   2.80645
 Alpha virt. eigenvalues --    2.82115   2.82408   2.82939   2.84369   2.84737
 Alpha virt. eigenvalues --    2.85138   2.86293   2.87113   2.88014   2.88469
 Alpha virt. eigenvalues --    2.89187   2.89694   2.90350   2.92042   2.92868
 Alpha virt. eigenvalues --    2.93849   2.94064   2.94701   2.95251   2.96335
 Alpha virt. eigenvalues --    2.97282   2.97751   2.98282   2.98826   2.99990
 Alpha virt. eigenvalues --    3.00259   3.01104   3.01724   3.02072   3.03119
 Alpha virt. eigenvalues --    3.03538   3.04019   3.04224   3.05242   3.06104
 Alpha virt. eigenvalues --    3.07168   3.08334   3.08538   3.08889   3.09271
 Alpha virt. eigenvalues --    3.10323   3.10400   3.10688   3.11744   3.12457
 Alpha virt. eigenvalues --    3.13040   3.14280   3.14528   3.14699   3.15477
 Alpha virt. eigenvalues --    3.16327   3.16670   3.17245   3.17850   3.18842
 Alpha virt. eigenvalues --    3.19207   3.20340   3.20547   3.21008   3.21988
 Alpha virt. eigenvalues --    3.22594   3.22708   3.23124   3.23898   3.24446
 Alpha virt. eigenvalues --    3.25342   3.25414   3.26020   3.26510   3.27513
 Alpha virt. eigenvalues --    3.28010   3.28146   3.29655   3.30065   3.30334
 Alpha virt. eigenvalues --    3.30957   3.31901   3.32118   3.32612   3.33030
 Alpha virt. eigenvalues --    3.33732   3.34550   3.35256   3.35812   3.36148
 Alpha virt. eigenvalues --    3.37124   3.37525   3.38399   3.38781   3.39032
 Alpha virt. eigenvalues --    3.39467   3.39730   3.40523   3.41058   3.42193
 Alpha virt. eigenvalues --    3.42227   3.43218   3.43863   3.44441   3.45460
 Alpha virt. eigenvalues --    3.46236   3.46574   3.47419   3.47631   3.48343
 Alpha virt. eigenvalues --    3.49069   3.49443   3.49745   3.50658   3.52450
 Alpha virt. eigenvalues --    3.53139   3.54586   3.54761   3.55307   3.56426
 Alpha virt. eigenvalues --    3.57591   3.57869   3.58115   3.58586   3.58915
 Alpha virt. eigenvalues --    3.59475   3.61609   3.61928   3.63696   3.64745
 Alpha virt. eigenvalues --    3.65504   3.66419   3.67317   3.67964   3.68424
 Alpha virt. eigenvalues --    3.70485   3.71026   3.71895   3.72293   3.73471
 Alpha virt. eigenvalues --    3.75103   3.75826   3.76447   3.76733   3.77428
 Alpha virt. eigenvalues --    3.78560   3.79182   3.80113   3.81290   3.81912
 Alpha virt. eigenvalues --    3.82574   3.85000   3.85791   3.88834   3.89321
 Alpha virt. eigenvalues --    3.90108   3.90778   3.91462   3.92662   3.93329
 Alpha virt. eigenvalues --    3.93858   3.95506   3.96630   3.98293   3.99558
 Alpha virt. eigenvalues --    4.01029   4.01656   4.02965   4.04796   4.05317
 Alpha virt. eigenvalues --    4.07232   4.07562   4.08718   4.10018   4.11051
 Alpha virt. eigenvalues --    4.11432   4.13328   4.14056   4.14341   4.16289
 Alpha virt. eigenvalues --    4.19981   4.21307   4.21406   4.21689   4.23270
 Alpha virt. eigenvalues --    4.24463   4.26292   4.27624   4.28200   4.29702
 Alpha virt. eigenvalues --    4.30646   4.33040   4.33340   4.37926   4.38628
 Alpha virt. eigenvalues --    4.41397   4.41487   4.41978   4.42543   4.44491
 Alpha virt. eigenvalues --    4.44951   4.45463   4.47645   4.50181   4.50712
 Alpha virt. eigenvalues --    4.52043   4.52681   4.52934   4.54825   4.55152
 Alpha virt. eigenvalues --    4.56872   4.63531   4.67082   4.67548   4.69131
 Alpha virt. eigenvalues --    4.70869   4.72077   4.72909   4.74066   4.74594
 Alpha virt. eigenvalues --    4.75043   4.75903   4.78921   4.80854   4.81217
 Alpha virt. eigenvalues --    4.84225   4.84568   4.86111   4.90113   4.91321
 Alpha virt. eigenvalues --    4.92097   4.92982   4.94292   4.95547   4.98040
 Alpha virt. eigenvalues --    4.98365   4.99562   5.01509   5.02610   5.05921
 Alpha virt. eigenvalues --    5.08033   5.10299   5.13076   5.17943   5.20012
 Alpha virt. eigenvalues --    5.21936   5.22729   5.23444   5.24377   5.27499
 Alpha virt. eigenvalues --    5.28954   5.30156   5.31338   5.32032   5.36311
 Alpha virt. eigenvalues --    5.40064   5.42783   5.45180   5.45933   5.46736
 Alpha virt. eigenvalues --    5.50068   5.51361   5.52435   5.55915   5.56923
 Alpha virt. eigenvalues --    5.62930   5.62972   5.72455   5.74963   5.75795
 Alpha virt. eigenvalues --    5.77993   5.78778   5.81851   5.82346   5.84296
 Alpha virt. eigenvalues --    5.85293   5.86419   5.88298   5.91776   5.93474
 Alpha virt. eigenvalues --    5.95866   5.98142   6.06937   6.18424   6.19990
 Alpha virt. eigenvalues --    6.23212   6.26764   6.28481   6.31565   6.36504
 Alpha virt. eigenvalues --    6.40254   6.43688   6.44604   6.51029   6.51609
 Alpha virt. eigenvalues --    6.53364   6.58134   6.69807   6.71216   6.73335
 Alpha virt. eigenvalues --    6.76365   6.79983   6.83960   6.84877   6.85693
 Alpha virt. eigenvalues --    6.86312   6.91042   6.99596   7.00514   7.07487
 Alpha virt. eigenvalues --    7.07864   7.09190   7.09724   7.16829   7.24830
 Alpha virt. eigenvalues --    7.24892   7.32462   8.99109   9.40221   9.53893
 Alpha virt. eigenvalues --   20.07447  22.31299  22.45134  22.49061  22.54873
 Alpha virt. eigenvalues --   22.59846  22.62149  22.68560  22.70906  22.79416
 Alpha virt. eigenvalues --   22.83093  22.94716  22.98018  23.06795  23.11311
 Alpha virt. eigenvalues --   23.21157  23.34099  32.11847  33.14159  44.13143
 Alpha virt. eigenvalues --   44.15851  44.21164  44.25167  44.50488
          Condensed to atoms (all electrons):
               1          2          3          4          5          6
     1  C    5.113084   0.424340   0.416673  -0.007839  -0.000033  -0.000347
     2  H    0.424340   0.509357  -0.022914  -0.001119   0.000244  -0.000003
     3  H    0.416673  -0.022914   0.541713   0.001774  -0.000013  -0.000008
     4  C   -0.007839  -0.001119   0.001774   5.338754   0.477415   0.257059
     5  H   -0.000033   0.000244  -0.000013   0.477415   0.536641  -0.030886
     6  O   -0.000347  -0.000003  -0.000008   0.257059  -0.030886   8.036855
     7  H   -0.000054  -0.000004   0.000005  -0.035528  -0.012782   0.287592
     8  C    0.008152   0.013122  -0.009481  -0.001528  -0.059720  -0.049069
     9  H    0.009383   0.000109  -0.002134  -0.102838   0.001888   0.003647
    10  O    0.007075  -0.000371   0.000263  -0.036317   0.001490  -0.008060
    11  H   -0.001347  -0.000130   0.000480   0.014774  -0.000764  -0.000453
    12  C   -0.002181  -0.000120   0.000580   0.090910  -0.077348  -0.026210
    13  H   -0.000306   0.000023   0.000121  -0.093323   0.006657   0.008623
    14  C    0.174563  -0.050558  -0.042650   0.106862   0.012152   0.006799
    15  H   -0.074607  -0.006968  -0.002786  -0.008208   0.000025   0.000087
    16  O   -0.033697   0.001002   0.005334  -0.071061   0.000981   0.005412
    17  N    0.000202  -0.000051  -0.000037   0.010692  -0.012612  -0.002971
    18  C   -0.000441   0.000047  -0.000007  -0.009218   0.001247   0.001800
    19  H   -0.000326  -0.000086   0.000063  -0.014488  -0.001792   0.000808
    20  C    0.000007  -0.000002  -0.000001   0.005791   0.003846  -0.000772
    21  H    0.000005   0.000000  -0.000000   0.000055   0.000053  -0.000008
    22  C   -0.000008  -0.000000   0.000000  -0.000316  -0.000198   0.000043
    23  H   -0.000000   0.000000  -0.000000   0.000010   0.000004   0.000000
    24  H    0.000000  -0.000000   0.000000  -0.000024  -0.000057  -0.000003
    25  C   -0.000063  -0.000003   0.000001  -0.004401  -0.000209  -0.000496
    26  C   -0.000217   0.000031  -0.000006   0.013782  -0.000892  -0.005417
    27  H   -0.000015   0.000001  -0.000000   0.000576  -0.000119  -0.000083
    28  C    0.000001  -0.000000  -0.000000   0.000067   0.000007  -0.000009
    29  O   -0.000000   0.000000  -0.000000   0.000007   0.000000  -0.000000
    30  N   -0.000000   0.000000   0.000000   0.000000   0.000000  -0.000000
    31  H   -0.000000   0.000000   0.000000   0.000000   0.000000  -0.000000
    32  H    0.000000   0.000000  -0.000000   0.000000   0.000000   0.000000
    33  C    0.000001  -0.000000   0.000000  -0.000168  -0.000360  -0.015004
    34  C    0.000001  -0.000000  -0.000000  -0.000065   0.000214   0.006768
    35  C    0.000000   0.000000  -0.000000  -0.000388   0.000061   0.000674
    36  C   -0.000000   0.000000   0.000000   0.000000   0.000001   0.000002
    37  C   -0.000000   0.000000   0.000000   0.000136  -0.000001  -0.000044
    38  O    0.000000   0.000000  -0.000000   0.000299   0.000025  -0.015524
    39  S    0.000000  -0.000000  -0.000000   0.000369   0.000016   0.000602
    40  H   -0.000000   0.000000  -0.000000   0.000152   0.000025   0.000026
    41  H   -0.000003   0.000000  -0.000000  -0.000690   0.000499   0.012231
    42  H    0.000000  -0.000000  -0.000000  -0.000000  -0.000000  -0.000000
    43  H    0.000000  -0.000000  -0.000000  -0.000000  -0.000000  -0.000000
    44  H   -0.000000  -0.000000  -0.000000   0.000000  -0.000000   0.000000
    45  H   -0.000000   0.000000   0.000000   0.000009   0.000002   0.000006
    46  H   -0.000000  -0.000000   0.000000  -0.000001   0.000000   0.000010
    47  H    0.378390  -0.021946  -0.026259   0.001048  -0.000314   0.000025
    48  H    0.000000   0.000000  -0.000000   0.000002   0.000002   0.000364
               7          8          9         10         11         12
     1  C   -0.000054   0.008152   0.009383   0.007075  -0.001347  -0.002181
     2  H   -0.000004   0.013122   0.000109  -0.000371  -0.000130  -0.000120
     3  H    0.000005  -0.009481  -0.002134   0.000263   0.000480   0.000580
     4  C   -0.035528  -0.001528  -0.102838  -0.036317   0.014774   0.090910
     5  H   -0.012782  -0.059720   0.001888   0.001490  -0.000764  -0.077348
     6  O    0.287592  -0.049069   0.003647  -0.008060  -0.000453  -0.026210
     7  H    0.385875   0.012184  -0.000512  -0.000546   0.000197   0.000907
     8  C    0.012184   5.419521   0.514979   0.292497  -0.047794  -0.031623
     9  H   -0.000512   0.514979   0.583760  -0.054834  -0.007170   0.013197
    10  O   -0.000546   0.292497  -0.054834   7.997193   0.295284  -0.026836
    11  H    0.000197  -0.047794  -0.007170   0.295284   0.432440  -0.001250
    12  C    0.000907  -0.031623   0.013197  -0.026836  -0.001250   5.428678
    13  H   -0.001419   0.017315   0.002621   0.014964  -0.001099   0.444000
    14  C   -0.000985   0.053502  -0.124963  -0.057497   0.002550  -0.091931
    15  H    0.000072  -0.040842   0.011042  -0.001340   0.003421  -0.001307
    16  O    0.000206  -0.030649   0.005260   0.008458   0.000029   0.253802
    17  N    0.005488   0.001070  -0.000773  -0.000091   0.000022   0.211200
    18  C    0.001012  -0.002935  -0.000219  -0.000201   0.000010  -0.071489
    19  H    0.000367   0.001293   0.000030  -0.000004   0.000003   0.017868
    20  C   -0.001218  -0.000791   0.000020   0.000005  -0.000001   0.009647
    21  H   -0.000012   0.000002   0.000000   0.000000  -0.000000   0.000073
    22  C    0.000306   0.000024  -0.000003  -0.000002   0.000000  -0.008313
    23  H   -0.000003  -0.000000   0.000000   0.000000  -0.000000   0.000082
    24  H    0.000106   0.000009  -0.000000   0.000000   0.000000   0.000381
    25  C    0.000521  -0.000526  -0.000000  -0.000034  -0.000001  -0.018343
    26  C   -0.000681  -0.003888  -0.000089  -0.000494  -0.000036  -0.058801
    27  H    0.000087  -0.000060  -0.000010  -0.000126   0.000005  -0.003199
    28  C    0.000017   0.000003   0.000000   0.000000  -0.000000  -0.000397
    29  O    0.000005   0.000000   0.000000  -0.000000  -0.000000   0.000401
    30  N    0.000000  -0.000000  -0.000000  -0.000000  -0.000000   0.000012
    31  H   -0.000000  -0.000000   0.000000  -0.000000  -0.000000  -0.000005
    32  H   -0.000000  -0.000000  -0.000000  -0.000000  -0.000000  -0.000010
    33  C    0.004414   0.000553   0.000013  -0.000722   0.000047   0.000063
    34  C   -0.004477  -0.000028  -0.000013   0.000008   0.000001   0.000296
    35  C    0.001134  -0.000041  -0.000001   0.000000  -0.000000   0.000870
    36  C   -0.000007  -0.000000  -0.000000  -0.000000  -0.000000   0.000016
    37  C   -0.000348   0.000000   0.000000  -0.000000  -0.000000  -0.000572
    38  O    0.023763  -0.000177   0.000002   0.000000  -0.000000   0.000152
    39  S   -0.001561  -0.000026   0.000001   0.000003  -0.000001  -0.000561
    40  H   -0.001182  -0.000019   0.000000   0.000014  -0.000001  -0.000006
    41  H   -0.009029  -0.000914  -0.000001   0.002224  -0.000151   0.000058
    42  H    0.000000   0.000000  -0.000000   0.000000   0.000000   0.000005
    43  H    0.000000   0.000000  -0.000000   0.000000   0.000000  -0.000000
    44  H   -0.000000   0.000000  -0.000000   0.000000   0.000000  -0.000000
    45  H   -0.000031   0.000000   0.000000  -0.000000  -0.000000  -0.000045
    46  H   -0.000066   0.000000  -0.000000  -0.000000   0.000000   0.000029
    47  H    0.000023  -0.013623   0.000824   0.000194   0.000150  -0.001122
    48  H    0.000198  -0.000016   0.000001   0.000006  -0.000002   0.000002
              13         14         15         16         17         18
     1  C   -0.000306   0.174563  -0.074607  -0.033697   0.000202  -0.000441
     2  H    0.000023  -0.050558  -0.006968   0.001002  -0.000051   0.000047
     3  H    0.000121  -0.042650  -0.002786   0.005334  -0.000037  -0.000007
     4  C   -0.093323   0.106862  -0.008208  -0.071061   0.010692  -0.009218
     5  H    0.006657   0.012152   0.000025   0.000981  -0.012612   0.001247
     6  O    0.008623   0.006799   0.000087   0.005412  -0.002971   0.001800
     7  H   -0.001419  -0.000985   0.000072   0.000206   0.005488   0.001012
     8  C    0.017315   0.053502  -0.040842  -0.030649   0.001070  -0.002935
     9  H    0.002621  -0.124963   0.011042   0.005260  -0.000773  -0.000219
    10  O    0.014964  -0.057497  -0.001340   0.008458  -0.000091  -0.000201
    11  H   -0.001099   0.002550   0.003421   0.000029   0.000022   0.000010
    12  C    0.444000  -0.091931  -0.001307   0.253802   0.211200  -0.071489
    13  H    0.522681  -0.011974   0.006267  -0.032637  -0.058053   0.013018
    14  C   -0.011974   5.375604   0.416943   0.199628   0.013550  -0.000924
    15  H    0.006267   0.416943   0.613854  -0.036283  -0.001241   0.000191
    16  O   -0.032637   0.199628  -0.036283   8.073724  -0.074400   0.009068
    17  N   -0.058053   0.013550  -0.001241  -0.074400   6.537602   0.305950
    18  C    0.013018  -0.000924   0.000191   0.009068   0.305950   5.022088
    19  H    0.001167  -0.003199   0.000185   0.011050  -0.049361   0.407507
    20  C   -0.000519   0.000518   0.000002  -0.000566  -0.082504   0.541833
    21  H    0.000006  -0.000003  -0.000000  -0.000066   0.004469  -0.029249
    22  C    0.000170  -0.000050   0.000001   0.000496  -0.002635  -0.016959
    23  H   -0.000003  -0.000000   0.000000  -0.000005  -0.001148   0.005050
    24  H   -0.000021   0.000002   0.000000   0.000026   0.008443   0.004055
    25  C    0.008695   0.000081   0.000020  -0.001843  -0.082418   0.040318
    26  C   -0.017921   0.000255  -0.000461   0.001521   0.342412  -0.161869
    27  H   -0.001012   0.000032  -0.000026   0.000839  -0.034885   0.007683
    28  C    0.000030  -0.000006  -0.000000   0.000015   0.003519   0.002237
    29  O   -0.000072  -0.000000   0.000000  -0.000001  -0.000436   0.000277
    30  N   -0.000001   0.000000  -0.000000  -0.000000  -0.000407  -0.000232
    31  H    0.000000  -0.000000  -0.000000  -0.000000   0.000021   0.000001
    32  H    0.000001   0.000000  -0.000000  -0.000000   0.000029   0.000293
    33  C   -0.000413  -0.000072   0.000000  -0.000001   0.000052   0.000001
    34  C    0.000265   0.000045  -0.000000   0.000041   0.003474  -0.001403
    35  C   -0.000047   0.000005  -0.000000   0.000000  -0.000669   0.001247
    36  C    0.000002   0.000000  -0.000000  -0.000000  -0.000172   0.000377
    37  C    0.000001  -0.000001  -0.000000  -0.000002  -0.001144   0.000551
    38  O   -0.000314   0.000008  -0.000000  -0.000000  -0.001582   0.001882
    39  S    0.000899   0.000002   0.000000  -0.000000  -0.000026   0.000100
    40  H    0.000027   0.000002   0.000000   0.000000  -0.000003  -0.000008
    41  H    0.000330   0.000142  -0.000002  -0.000001  -0.000047   0.000044
    42  H    0.000000   0.000000  -0.000000   0.000000   0.000027  -0.000118
    43  H   -0.000000  -0.000000   0.000000   0.000000   0.000012   0.000007
    44  H   -0.000000   0.000000  -0.000000   0.000000   0.000001   0.000001
    45  H    0.000003  -0.000000   0.000000  -0.000000  -0.000297   0.000701
    46  H    0.000008   0.000000   0.000000   0.000000   0.000072   0.000004
    47  H    0.000064  -0.007797   0.009495   0.001309  -0.000262  -0.000070
    48  H    0.000003  -0.000000  -0.000000  -0.000000  -0.000003  -0.000001
              19         20         21         22         23         24
[...]
      6        8           0.001739441   -0.005055374   -0.010548349
      7        1          -0.006294987    0.002667996    0.001602695
      8        6          -0.010642455   -0.005948773   -0.003871890
      9        1           0.001138727    0.005229117   -0.002799974
     10        8           0.006258877   -0.001502275   -0.001210382
     11        1          -0.001621587    0.001763000    0.000379360
     12        6          -0.010311962    0.006207132    0.003356498
     13        1          -0.002917907   -0.002156286   -0.002407551
     14        6           0.001008674    0.001077389    0.006553974
     15        1          -0.002778793    0.001985543    0.001614306
     16        8          -0.000964082   -0.002083345    0.006701408
     17        7           0.019437300    0.005185930    0.001965959
     18        6           0.006163731   -0.004404810    0.005780564
     19        1           0.002732054    0.000847348   -0.000451118
     20        6          -0.008062956    0.000822276   -0.003449974
     21        1          -0.000668004   -0.003621155    0.001212978
     22        6          -0.009674927    0.007812714    0.010397268
     23        1          -0.002794386    0.001240971    0.000197148
     24        1           0.006419222   -0.013051678   -0.017400062
     25        6          -0.010828141    0.002760420   -0.007100641
     26        6           0.006659591   -0.006119073    0.004972838
     27        1           0.002438144    0.000412234    0.001683259
     28        6          -0.012836692   -0.004026055    0.001378726
     29        8           0.000364085    0.004109699   -0.005033234
     30        7           0.026534891   -0.001314425   -0.006515278
     31        1          -0.002430758   -0.006330659    0.008354424
     32        1          -0.003229718    0.005749906    0.007626877
     33        6          -0.001749731   -0.009607241   -0.000551544
     34        6          -0.007233025   -0.026812207    0.004655584
     35        6           0.008656407    0.002924238   -0.001623463
     36        6          -0.002281780    0.002929464   -0.002912942
     37        6          -0.010785354   -0.000415182    0.011065097
     38        8           0.000236243    0.011614831   -0.006909457
     39       16           0.014797521    0.015069277    0.010019222
     40        1           0.001185311    0.000513572    0.000229943
     41        1           0.001074157    0.000615111    0.001787122
     42        1          -0.001718392   -0.001185188   -0.003039457
     43        1           0.000847555    0.002271213   -0.002090271
     44        1          -0.001433631    0.000093634   -0.000053515
     45        1           0.002750588   -0.002668041    0.000731779
     46        1          -0.000167566    0.003576177   -0.002532919
     47        1           0.000574449   -0.001875048   -0.000455779
     48        1          -0.002948871    0.004513996   -0.004878023
 -------------------------------------------------------------------
 Cartesian Forces:  Max     0.026812207 RMS     0.006480704
 Leave Link  716 at Sun Apr  9 09:54:55 2023, MaxMem=  2684354560 cpu:               0.9 elap:               0.1
 (Enter /opt/gaussian/g16/l103.exe)

 GradGradGradGradGradGradGradGradGradGradGradGradGradGradGradGradGradGrad
 Berny optimization.
 Search for a local minimum.
 Step number   1 out of a maximum of    2
 All quantities printed in internal units (Hartrees-Bohrs-Radians)
 Second derivative matrix not updated -- first step.
 ITU=  0
     Eigenvalues ---    0.00055   0.00097   0.00107   0.00130   0.00168
     Eigenvalues ---    0.00291   0.00343   0.00376   0.00449   0.00498
     Eigenvalues ---    0.00605   0.00738   0.00901   0.00978   0.01038
     Eigenvalues ---    0.01082   0.01243   0.01378   0.01409   0.01496
     Eigenvalues ---    0.01722   0.01959   0.02000   0.02477   0.02527
     Eigenvalues ---    0.03009   0.03161   0.03345   0.03904   0.04030
     Eigenvalues ---    0.04300   0.04585   0.04884   0.04957   0.05140
     Eigenvalues ---    0.05284   0.05472   0.05583   0.05782   0.05869
     Eigenvalues ---    0.05956   0.06061   0.06269   0.06459   0.06785
     Eigenvalues ---    0.07053   0.07537   0.07695   0.07817   0.08277
     Eigenvalues ---    0.08655   0.08993   0.09801   0.10102   0.10271
     Eigenvalues ---    0.10742   0.11201   0.11990   0.12242   0.12669
     Eigenvalues ---    0.13054   0.13162   0.13286   0.13467   0.13878
     Eigenvalues ---    0.14308   0.14438   0.14972   0.15716   0.16422
     Eigenvalues ---    0.16654   0.17396   0.17833   0.18813   0.19698
     Eigenvalues ---    0.20171   0.21684   0.21731   0.21981   0.24312
     Eigenvalues ---    0.27215   0.27728   0.27854   0.31111   0.32568
     Eigenvalues ---    0.35077   0.35132   0.36749   0.36950   0.37618
     Eigenvalues ---    0.37618   0.37618   0.37618   0.37618   0.41956
     Eigenvalues ---    0.42996   0.44691   0.48027   0.53623   0.57120
     Eigenvalues ---    0.60612   0.66984   0.67589   0.71381   0.76516
     Eigenvalues ---    0.77526   0.83511   0.86546   0.87806   0.89771
     Eigenvalues ---    0.90509   0.92530   0.93098   0.94188   0.94916
     Eigenvalues ---    0.95589   0.95867   0.98576   0.99765   1.02467
     Eigenvalues ---    1.02904   1.05446   1.07270   1.09073   1.10390
     Eigenvalues ---    1.14346   1.18032   1.21184   1.21584   1.27436
     Eigenvalues ---    1.28351   1.33089   1.51283   1.68214   1.69341
     Eigenvalues ---    1.79812   2.10782   2.29214
 Quadratic step=2.652D+00 exceeds max=3.000D-01 adjusted using Lamda=-3.156D-02.
 Angle between NR and scaled steps=  57.23 degrees.
 Angle between quadratic step and forces=  54.94 degrees.
 Linear search not attempted -- first point.
 Variable       Old X    -DE/DX   Delta X   Delta X   Delta X     New X
                                 (Linear)    (Quad)   (Total)
    X1        6.68484  -0.00552   0.00000  -0.02999  -0.02999   6.65485
    Y1       -7.16778   0.01430   0.00000   0.03142   0.03142  -7.13636
    Z1       -1.30489  -0.00088   0.00000  -0.00379  -0.00379  -1.30868
    X2        6.88835  -0.00036   0.00000  -0.03456  -0.03456   6.85379
    Y2       -7.47948  -0.00381   0.00000  -0.01048  -0.01048  -7.48996
    Z2       -3.32331  -0.00147   0.00000  -0.00374  -0.00374  -3.32705
    X3        8.36684   0.00086   0.00000  -0.03658  -0.03658   8.33025
    Y3       -7.83269  -0.00437   0.00000  -0.02552  -0.02552  -7.85821
    Z3       -0.33360   0.00082   0.00000  -0.01215  -0.01215  -0.34575
    X4        3.15473   0.00414   0.00000   0.00079   0.00079   3.15553
    Y4       -2.68995  -0.00442   0.00000   0.00714   0.00714  -2.68281
    Z4        1.84454  -0.00446   0.00000  -0.02844  -0.02844   1.81609
    X5        1.87650   0.00424   0.00000   0.02027   0.02027   1.89676
    Y5       -4.34562   0.00448   0.00000   0.01406   0.01406  -4.33156
    Z5        1.79832  -0.00044   0.00000  -0.02963  -0.02963   1.76869
    X6        2.58742   0.00174   0.00000  -0.02760  -0.02760   2.55981
    Y6       -1.08418  -0.00506   0.00000   0.00683   0.00683  -1.07735
    Z6        3.86756  -0.01055   0.00000  -0.05365  -0.05365   3.81390
    X7        0.86844  -0.00629   0.00000  -0.04105  -0.04105   0.82739
    Y7       -0.49927   0.00267   0.00000   0.00861   0.00861  -0.49066
    Z7        3.67348   0.00160   0.00000  -0.01103  -0.01103   3.66245
    X8        5.91144  -0.01064   0.00000  -0.01699  -0.01699   5.89445
    Y8       -3.62068  -0.00595   0.00000   0.00980   0.00980  -3.61088
    Z8        1.96971  -0.00387   0.00000  -0.01087  -0.01087   1.95884
    X9        6.08946   0.00114   0.00000   0.00187   0.00187   6.09133
    Y9       -5.28607   0.00523   0.00000   0.02804   0.02804  -5.25803
    Z9        3.21164  -0.00280   0.00000  -0.01292  -0.01292   3.19872
   X10        7.36876   0.00626   0.00000   0.01896   0.01896   7.38772
   Y10       -1.58291  -0.00150   0.00000  -0.00036  -0.00036  -1.58327
   Z10        2.84369  -0.00121   0.00000  -0.02857  -0.02857   2.81511
   X11        9.11551  -0.00162   0.00000   0.01383   0.01383   9.12934
   Y11       -2.09755   0.00176   0.00000  -0.00499  -0.00499  -2.10254
   Z11        2.85693   0.00038   0.00000  -0.01713  -0.01713   2.83980
   X12        3.17514  -0.01031   0.00000  -0.00487  -0.00487   3.17027
   Y12       -1.46183   0.00621   0.00000   0.02224   0.02224  -1.43959
   Z12       -0.81081   0.00336   0.00000   0.00634   0.00634  -0.80447
   X13        4.23372  -0.00292   0.00000  -0.00652  -0.00652   4.22721
   Y13        0.32095  -0.00216   0.00000   0.01360   0.01360   0.33455
   Z13       -0.64553  -0.00241   0.00000  -0.02143  -0.02143  -0.66696
   X14        6.46882   0.00101   0.00000  -0.01336  -0.01336   6.45547
   Y14       -4.33343   0.00108   0.00000   0.01821   0.01821  -4.31522
   Z14       -0.84427   0.00655   0.00000   0.01795   0.01795  -0.82631
   X15        8.26622  -0.00278   0.00000  -0.02833  -0.02833   8.23789
   Y15       -3.45495   0.00199   0.00000   0.03800   0.03800  -3.41695
   Z15       -1.40413   0.00161   0.00000   0.01837   0.01837  -1.38576
   X16        4.48093  -0.00096   0.00000  -0.02364  -0.02364   4.45729
   Y16       -3.23814  -0.00208   0.00000  -0.00178  -0.00178  -3.23991
   Z16       -2.33651   0.00670   0.00000   0.03115   0.03115  -2.30536
   X17        0.69512   0.01944   0.00000   0.03088   0.03088   0.72600
   Y17       -0.85530   0.00519   0.00000   0.01010   0.01010  -0.84521
   Z17       -1.85539   0.00197   0.00000   0.00679   0.00679  -1.84860
   X18       -1.06481   0.00616   0.00000   0.02420   0.02420  -1.04061
   Y18       -2.76560  -0.00440   0.00000  -0.00001  -0.00001  -2.76561
   Z18       -2.31494   0.00578   0.00000   0.02270   0.02270  -2.29224
   X19       -0.46372   0.00273   0.00000   0.05106   0.05106  -0.41266
   Y19       -4.67070   0.00085   0.00000   0.01034   0.01034  -4.66037
   Z19       -1.88835  -0.00045   0.00000   0.02178   0.02178  -1.86658
   X20       -3.30956  -0.00806   0.00000   0.00345   0.00345  -3.30610
   Y20       -2.26317   0.00082   0.00000  -0.02302  -0.02302  -2.28620
   Z20       -3.27503  -0.00345   0.00000   0.01008   0.01008  -3.26496
   X21       -4.59295  -0.00067   0.00000   0.01076   0.01076  -4.58218
   Y21       -3.77848  -0.00362   0.00000  -0.04355  -0.04355  -3.82203
   Z21       -3.72027   0.00121   0.00000   0.03758   0.03758  -3.68269
   X22       -4.13974  -0.00967   0.00000  -0.01786  -0.01786  -4.15760
   Y22        0.38689   0.00781   0.00000  -0.02618  -0.02618   0.36071
   Z22       -3.78460   0.01040   0.00000  -0.01497  -0.01497  -3.79956
   X23       -5.36417  -0.00279   0.00000  -0.02591  -0.02591  -5.39008
   Y23        0.41801   0.00124   0.00000  -0.00525  -0.00525   0.41276
   Z23       -5.43702   0.00020   0.00000  -0.00943  -0.00943  -5.44645
   X24       -5.26857   0.00642   0.00000  -0.02554  -0.02554  -5.29411
   Y24        1.17912  -0.01305   0.00000  -0.09697  -0.09697   1.08215
   Z24       -2.15534  -0.01740   0.00000  -0.06593  -0.06593  -2.22126
   X25       -1.88325  -0.01083   0.00000  -0.01640  -0.01640  -1.89965
   Y25        2.08024   0.00276   0.00000  -0.00984  -0.00984   2.07040
   Z25       -4.11027  -0.00710   0.00000   0.01317   0.01317  -4.09710
   X26        0.31188   0.00666   0.00000   0.00648   0.00648   0.31836
   Y26        1.44968  -0.00612   0.00000  -0.00218  -0.00218   1.44750
   Z26       -3.04657   0.00497   0.00000   0.01382   0.01382  -3.03275
   X27        1.89809   0.00244   0.00000   0.01028   0.01028   1.90837
   Y27        2.73174   0.00041   0.00000   0.00399   0.00399   2.73573
   Z27       -3.11263   0.00168   0.00000   0.02799   0.02799  -3.08464
   X28       -2.19092  -0.01284   0.00000  -0.00082  -0.00082  -2.19174
   Y28        4.59728  -0.00403   0.00000  -0.00811  -0.00811   4.58917
   Z28       -5.31592   0.00138   0.00000   0.03469   0.03469  -5.28123
   X29       -0.88979   0.00036   0.00000   0.01384   0.01384  -0.87595
   Y29        6.39482   0.00411   0.00000   0.00216   0.00216   6.39698
   Z29       -4.77645  -0.00503   0.00000  -0.02956  -0.02956  -4.80601
   X30       -4.31598   0.02653   0.00000   0.08546   0.08546  -4.23052
   Y30        4.82982  -0.00131   0.00000  -0.00948  -0.00948   4.82034
   Z30       -6.97682  -0.00652   0.00000  -0.00200  -0.00200  -6.97882
   X31       -4.10684  -0.00243   0.00000   0.03871   0.03871  -4.06813
   Y31        6.42800  -0.00633   0.00000   0.00197   0.00197   6.42997
   Z31       -8.05406   0.00835   0.00000   0.04408   0.04408  -8.00997
   X32       -4.47329  -0.00323   0.00000  -0.00454  -0.00454  -4.47783
   Y32        3.29540   0.00575   0.00000  -0.00295  -0.00295   3.29244
   Z32       -8.14517   0.00763   0.00000   0.03631   0.03631  -8.10886
   X33        1.33996  -0.00175   0.00000  -0.00441  -0.00441   1.33555
   Y33        3.87891  -0.00961   0.00000  -0.03208  -0.03208   3.84682
   Z33        7.14741  -0.00055   0.00000   0.00174   0.00174   7.14915
   X34       -1.98594  -0.00723   0.00000   0.00696   0.00696  -1.97897
   Y34        3.93953  -0.02681   0.00000  -0.01501  -0.01501   3.92452
   Z34        3.22654   0.00466   0.00000   0.00215   0.00215   3.22869
   X35       -3.44084   0.00866   0.00000   0.00485   0.00485  -3.43599
   Y35        5.29169   0.00292   0.00000   0.01197   0.01197   5.30366
   Z35        1.29858  -0.00162   0.00000   0.00490   0.00490   1.30348
   X36       -7.21552  -0.00228   0.00000  -0.01832  -0.01832  -7.23384
   Y36        5.97805   0.00293   0.00000   0.00131   0.00131   5.97936
   Z36       -1.35713  -0.00291   0.00000  -0.00923  -0.00923  -1.36636
   X37       -5.63803  -0.01079   0.00000  -0.03380  -0.03380  -5.67184
   Y37        4.50556  -0.00042   0.00000   0.02310   0.02310   4.52866
   Z37        0.41620   0.01107   0.00000   0.05431   0.05431   0.47052
   X38       -2.25193   0.00024   0.00000  -0.00127  -0.00127  -2.25319
   Y38        1.71117   0.01161   0.00000  -0.01356  -0.01356   1.69761
   Z38        3.81000  -0.00691   0.00000  -0.05007  -0.05007   3.75993
   X39        0.12508   0.01480   0.00000   0.03027   0.03027   0.15535
   Y39        5.91972   0.01507   0.00000   0.01375   0.01375   5.93346
   Z39        4.71827   0.01002   0.00000   0.03113   0.03113   4.74940
   X40       -0.25573   0.00119   0.00000   0.00158   0.00158  -0.25415
   Y40        3.04254   0.00051   0.00000  -0.02310  -0.02310   3.01944
   Z40        8.14517   0.00023   0.00000   0.01066   0.01066   8.15583
   X41        2.43605   0.00107   0.00000   0.03161   0.03161   2.46766
   Y41        2.37785   0.00062   0.00000  -0.01565  -0.01565   2.36220
   Z41        6.26686   0.00179   0.00000   0.02644   0.02644   6.29329
   X42       -7.36918  -0.00172   0.00000  -0.01206  -0.01206  -7.38125
   Y42        5.01770  -0.00119   0.00000  -0.02499  -0.02499   4.99272
   Z42       -3.16689  -0.00304   0.00000  -0.00567  -0.00567  -3.17256
   X43       -6.40279   0.00085   0.00000  -0.00134  -0.00134  -6.40413
   Y43        7.83269   0.00227   0.00000  -0.00287  -0.00287   7.82981
   Z43       -1.68472  -0.00209   0.00000  -0.04146  -0.04146  -1.72618
   X44       -9.11551  -0.00143   0.00000  -0.02374  -0.02374  -9.13925
   Y44        6.20569   0.00009   0.00000   0.01936   0.01936   6.22505
   Z44       -0.59581  -0.00005   0.00000  -0.02670  -0.02670  -0.62252
   X45       -6.46080   0.00275   0.00000   0.00939   0.00939  -6.45141
   Y45        2.79163  -0.00267   0.00000  -0.00253  -0.00253   2.78910
   Z45        1.18262   0.00073   0.00000   0.04824   0.04824   1.23086
   X46       -2.62296  -0.00017   0.00000   0.00398   0.00398  -2.61898
   Y46        7.05285   0.00358   0.00000   0.01271   0.01271   7.06557
   Z46        0.66854  -0.00253   0.00000  -0.02415  -0.02415   0.64439
   X47        5.01211   0.00057   0.00000  -0.02096  -0.02096   4.99115
   Y47       -8.14370  -0.00188   0.00000   0.01222   0.01222  -8.13148
   Z47       -0.60323  -0.00046   0.00000  -0.00699  -0.00699  -0.61022
   X48        2.53396  -0.00295   0.00000  -0.03571  -0.03571   2.49825
   Y48        4.90714   0.00451   0.00000   0.03680   0.03680   4.94394
   Z48        8.47402  -0.00488   0.00000  -0.03118  -0.03118   8.44284
         Item               Value     Threshold  Converged?
 Maximum Force            0.026812     0.000450     NO 
 RMS     Force            0.006481     0.000300     NO 
 Maximum Displacement     0.096973     0.001800     NO 
 RMS     Displacement     0.025032     0.001200     NO 
 Predicted change in Energy=-8.134145D-03
 GradGradGradGradGradGradGradGradGradGradGradGradGradGradGradGradGradGrad

 Leave Link  103 at Sun Apr  9 09:54:55 2023, MaxMem=  2684354560 cpu:               1.8 elap:               0.1
 (Enter /opt/gaussian/g16/l9999.exe)

 Test job not archived.
 1\1\GINC-JULIO-SYS\Force\RM062X\def2TZVP\C16H24N2O5S1\JVELAZQUEZ\09-Ap
 r-2023\0\\#P M062X/Def2TZVP scf=(direct,conver=8) EmpiricalDispersion=
 GD3 NoSymm Force pop=(NBORead) Charge Prop=(Field,Read)\\Gaussian run 
 using SANDER external interface, route from template gau_job.tpl\\0,1\
 C,3.5374663734,-3.7930248524,-0.6905171193\H,3.645157661,-3.9579718565
 ,-1.7586189171\H,4.427539875,-4.1448790199,-0.1765339563\C,1.669413708
 1,-1.4234613894,0.97608624\H,0.9929990411,-2.299604129,0.9516299058\O,
 1.3692013385,-0.5737249452,2.0466227169\H,0.4595600231,-0.2642043915,1
 .9439227898\C,3.128198568,-1.9159810093,1.0423272963\H,3.2224051346,-2
 .7972701619,1.6995260305\O,3.8993775756,-0.8376407383,1.5048136118\H,4
 .8237224281,-1.1099741078,1.5118212497\C,1.6802108473,-0.7735679496,-0
 .429060704\H,2.2403902927,0.1698371105,-0.3415975125\C,3.4231526252,-2
 .2931527655,-0.4467662974\H,4.3742962613,-1.8282785297,-0.7430319747\O
 ,2.3712040945,-1.7135480638,-1.236426896\N,0.3678413479,-0.4526068614,
 -0.9818276349\C,-0.5634733117,-1.4634911757,-1.2250148317\H,-0.2453906
 145,-2.4716293204,-0.9992727542\C,-1.7513413069,-1.1976204712,-1.73307
 33992\H,-2.4304830565,-1.9994869389,-1.9686801071\C,-2.1906576925,0.20
 47324409,-2.0027217717\H,-2.8385979669,0.2212012569,-2.8771468794\H,-2
 .7880046345,0.6239651179,-1.1405559748\C,-0.9965721684,1.1008156634,-2
 .1750607473\C,0.1650415364,0.7671401337,-1.6121772173\H,1.0044277297,1
 .4455736019,-1.6471314463\C,-1.1593850551,2.4327761398,-2.8130653204\O
 ,-0.470858348,3.3839930262,-2.5275909568\N,-2.283916914,2.5558322549,-
 3.691973165\H,-2.1732464311,3.4015527011,-4.2620242478\H,-2.3671616923
 ,1.7438485544,-4.3102381496\C,0.7090758707,2.0526286609,3.7822468894\C
 ,-1.0509128909,2.0847069252,1.7074107966\C,-1.8208145048,2.800243385,0
 .6871773054\C,-3.8182896941,3.1634454146,-0.7181615407\C,-2.9835195608
 ,2.3842401753,0.2202451468\O,-1.1916683313,0.9055108008,2.0161662132\S
 ,0.0661868947,3.1325785799,2.4968019771\H,-0.1353254939,1.6100429302,4
 .3102381496\H,1.2891040584,1.2583044323,3.3162773089\H,-3.8996025601,2
 .6552541993,-1.6758477241\H,-3.3882085895,4.1448790199,-0.8915165176\H
 ,-4.8237224281,3.2839101905,-0.3152913934\H,-3.4189065541,1.4772667574
 ,0.6258146137\H,-1.3880111591,3.7322078644,0.3537783332\H,2.652294311,
 -4.3094596697,-0.3192146828\H,1.3409138914,2.5967455896,4.484256493\\V
 ersion=ES64L-G16RevA.03\HF=-1507.9026355\RMSD=9.211e-09\RMSF=6.481e-03
 \Dipole=0.157427,-1.2125694,-0.4372959\Quadrupole=9.380108,-7.0366052,
 -2.3435028,-9.2231551,8.7407493,0.2667967\PG=C01 [X(C16H24N2O5S1)]\\@


 THE 2ND LAW OF THERMODYNAMICS HAS THE SAME
 DEGREE OF TRUTH AS THE STATEMENT THAT IF YOU THROW
 A TUMBLERFULL OF WATER INTO THE SEA, YOU CANNOT GET
 THE SAME TUMBLERFULL OF WATER OUT AGAIN.
          - J.C. MAXWELL, LETTER TO LORD RAYLEIGH, DECEMBER 6,1870
 Job cpu time:       0 days  6 hours 36 minutes 22.5 seconds.
 Elapsed time:       0 days  0 hours 24 minutes 47.7 seconds.
 File lengths (MBytes):  RWF=    435 Int=      0 D2E=      0 Chk=     48 Scr=      1
 Normal termination of Gaussian 16 at Sun Apr  9 09:54:55 2023.
