 Entering Gaussian System, Link 0=g16
 Initial command:
 /opt/gaussian/g16/l1.exe "/opt/gaussian/scratch16/Gau-3403479.inp" -scrdir="/opt/gaussian/scratch16/"
 Entering Link 1 = /opt/gaussian/g16/l1.exe PID=   3403481.
  
 Copyright (c) 1988,1990,1992,1993,1995,1998,2003,2009,2016,
            Gaussian, Inc.  All Rights Reserved.
  
 This is part of the Gaussian(R) 16 program.  It is based on
 the Gaussian(R) 09 system (copyright 2009, Gaussian, Inc.),
 the Gaussian(R) 03 system (copyright 2003, Gaussian, Inc.),
 the Gaussian(R) 98 system (copyright 1998, Gaussian, Inc.),
 the Gaussian(R) 94 system (copyright 1995, Gaussian, Inc.),
 the Gaussian 92(TM) system (copyright 1992, Gaussian, Inc.),
 the Gaussian 90(TM) system (copyright 1990, Gaussian, Inc.),
 the Gaussian 88(TM) system (copyright 1988, Gaussian, Inc.),
 the Gaussian 86(TM) system (copyright 1986, Carnegie Mellon
 University), and the Gaussian 82(TM) system (copyright 1983,
 Carnegie Mellon University). Gaussian is a federally registered
 trademark of Gaussian, Inc.
  
 This software contains proprietary and confidential information,
 including trade secrets, belonging to Gaussian, Inc.
  
 This software is provided under written license and may be
 used, copied, transmitted, or stored only in accord with that
 written license.
  
 The following legend is applicable only to US Government
 contracts under FAR:
  
                    RESTRICTED RIGHTS LEGEND
  
 Use, reproduction and disclosure by the US Government is
 subject to restrictions as set forth in subparagraphs (a)
 and (c) of the Commercial Computer Software - Restricted
 Rights clause in FAR 52.227-19.
  
 Gaussian, Inc.
 340 Quinnipiac St., Bldg. 40, Wallingford CT 06492
  
  
 ---------------------------------------------------------------
 Warning -- This program may not be used in any manner that
 competes with the business of Gaussian, Inc. or will provide
 assistance to any competitor of Gaussian, Inc.  The licensee
 of this program is prohibited from giving any competitor of
 Gaussian, Inc. access to this program.  By using this program,
 the user acknowledges that Gaussian, Inc. is engaged in the
 business of creating and licensing software in the field of
 computational chemistry and represents and warrants to the
 licensee that it is not a competitor of Gaussian, Inc. and that
 it will not use this program in any manner prohibited above.
 ---------------------------------------------------------------
  

 Cite this work as:
 Gaussian 16, Revision A.03,
 M. J. Frisch, G. W. Trucks, H. B. Schlegel, G. E. Scuseria, 
 M. A. Robb, J. R. Cheeseman, G. Scalmani, V. Barone, 
 G. A. Petersson, H. Nakatsuji, X. Li, M. Caricato, A. V. Marenich, 
 J. Bloino, B. G. Janesko, R. Gomperts, B. Mennucci, H. P. Hratchian, 
 J. V. Ortiz, A. F. Izmaylov, J. L. Sonnenberg, D. Williams-Young, 
 F. Ding, F. Lipparini, F. Egidi, J. Goings, B. Peng, A. Petrone, 
 T. Henderson, D. Ranasinghe, V. G. Zakrzewski, J. Gao, N. Rega, 
 G. Zheng, W. Liang, M. Hada, M. Ehara, K. Toyota, R. Fukuda, 
 J. Hasegawa, M. Ishida, T. Nakajima, Y. Honda, O. Kitao, H. Nakai, 
 T. Vreven, K. Throssell, J. A. Montgomery, Jr., J. E. Peralta, 
 F. Ogliaro, M. J. Bearpark, J. J. Heyd, E. N. Brothers, K. N. Kudin, 
 V. N. Staroverov, T. A. Keith, R. Kobayashi, J. Normand, 
 K. Raghavachari, A. P. Rendell, J. C. Burant, S. S. Iyengar, 
 J. Tomasi, M. Cossi, J. M. Millam, M. Klene, C. Adamo, R. Cammi, 
 J. W. Ochterski, R. L. Martin, K. Morokuma, O. Farkas, 
 J. B. Foresman, and D. J. Fox, Gaussian, Inc., Wallingford CT, 2016.
 
 ******************************************
 Gaussian 16:  ES64L-G16RevA.03 25-Dec-2016
                 9-Apr-2023 
 ******************************************
 %chk=11.chk
 %NProcShared=16
 Will use up to   16 processors via shared memory.
 %mem=20GB
 ----------------------------------------------------------------------
 #P M062X/Def2TZVP scf=(direct,conver=8) EmpiricalDispersion=GD3 NoSymm
  Force pop=(NBORead) Charge Prop=(Field,Read)
 ----------------------------------------------------------------------
 1/10=7,18=10,28=-2,30=1,38=1,125=101/1,3;
 2/12=2,15=1,17=6,18=5,29=2,40=1/2;
 3/5=44,7=101,11=2,25=1,30=1,71=1,74=-55,124=31/1,2,3;
 4//1;
 5/5=2,6=8,38=5/2;
 6/7=2,8=2,9=2,10=2,14=2,15=1,28=1,40=2/1,2,7;
 7/7=1,16=-2,29=1,30=1/1,2,3,16;
 1/10=7,18=10,28=-2,30=1/3;
 99/12=1/99;
 Leave Link    1 at Sun Apr  9 09:54:19 2023, MaxMem=  2684354560 cpu:               0.9 elap:               0.1
 (Enter /opt/gaussian/g16/l101.exe)
 ----------------------------------------------------------------------
 Gaussian run using SANDER external interface, route from template gau_
 job.tpl
 ----------------------------------------------------------------------
 Symbolic Z-matrix:
 Charge =  0 Multiplicity = 1
 C                     3.52925  -3.73469  -0.69751 
 H                     3.62999  -3.89796  -1.76646 
 H                     4.42231  -4.08797  -0.18954 
 C                     1.66959  -1.36307   0.97785 
 H                     0.99089  -2.23837   0.94764 
 O                     1.37198  -0.51995   2.05283 
 H                     0.45604  -0.22254   1.96358 
 C                     3.12678  -1.85933   1.03935 
 H                     3.21882  -2.74306   1.69461 
 O                     3.89897  -0.78477   1.50325 
 H                     4.82329  -1.05627   1.50473 
 C                     1.68262  -0.70466  -0.42379 
 H                     2.25855   0.22899  -0.33427 
 C                     3.41716  -2.2344   -0.45145 
 H                     4.36908  -1.77158  -0.74831 
 O                     2.36385  -1.65116  -1.23722 
 N                     0.37231  -0.35912  -0.96288 
 C                    -0.5935   -1.34327  -1.16706 
 H                    -0.30064  -2.36196  -0.96155 
 C                    -1.78967  -1.04525  -1.63763 
 H                    -2.50735  -1.8216   -1.83784 
 C                    -2.1853    0.36545  -1.89717 
 H                    -2.91073   0.41253  -2.70711 
 H                    -2.69872   0.82106  -0.98102 
 C                    -0.97124   1.21041  -2.15456 
 C                     0.1953    0.85708  -1.61714 
 H                     1.05624   1.50369  -1.68724 
 C                    -1.13736   2.52931  -2.82225 
 O                    -0.47155   3.49354  -2.53553 
 N                    -2.24333   2.6171   -3.72227 
 H                    -2.13567   3.45149  -4.30787 
 H                    -2.31366   1.78888  -4.31895 
 C                     0.69621   2.09706   3.78142 
 C                    -1.05675   2.06538   1.70695 
 C                    -1.8165    2.73324   0.65108 
 C                    -3.82722   3.11986  -0.72125 
 C                    -3.00048   2.32784   0.21909 
 O                    -1.20573   0.90061   2.07304 
 S                     0.0605    3.13956   2.46058 
 H                    -0.15036   1.66972   4.31895 
 H                     1.27373   1.28978   3.33502 
 H                    -3.93545   2.62542  -1.68296 
 H                    -3.37013   4.08797  -0.89934 
 H                    -4.82329   3.25964  -0.30489 
 H                    -3.47703   1.4789    0.6974 
 H                    -1.35537   3.61738   0.23585 
 H                     2.64606  -4.25118  -0.32159 
 H                     1.32961   2.65349   4.47229 
 
 ITRead=  0  0  0  0  0  0  0  0  0  0  0  0  0  0  0  0  0  0  0  0
 ITRead=  0  0  0  0  0  0  0  0  0  0  0  0  0  0  0  0  0  0  0  0
 ITRead=  0  0  0  0  0  0  0  0
 MicOpt= -1 -1 -1 -1 -1 -1 -1 -1 -1 -1 -1 -1 -1 -1 -1 -1 -1 -1 -1 -1
 MicOpt= -1 -1 -1 -1 -1 -1 -1 -1 -1 -1 -1 -1 -1 -1 -1 -1 -1 -1 -1 -1
 MicOpt= -1 -1 -1 -1 -1 -1 -1 -1
 NAtoms=     48 NQM=       48 NQMF=       0 NMMI=      0 NMMIF=      0
                NMic=       0 NMicF=      0.
                    Isotopes and Nuclear Properties:
 (Nuclear quadrupole moments (NQMom) in fm**2, nuclear magnetic moments (NMagM)
  in nuclear magnetons)

  Atom         1           2           3           4           5           6           7           8           9          10
 IAtWgt=          12           1           1          12           1          16           1          12           1          16
 AtmWgt=  12.0000000   1.0078250   1.0078250  12.0000000   1.0078250  15.9949146   1.0078250  12.0000000   1.0078250  15.9949146
 NucSpn=           0           1           1           0           1           0           1           0           1           0
 AtZEff=  -0.0000000  -0.0000000  -0.0000000  -0.0000000  -0.0000000  -0.0000000  -0.0000000  -0.0000000  -0.0000000  -0.0000000
 NQMom=    0.0000000   0.0000000   0.0000000   0.0000000   0.0000000   0.0000000   0.0000000   0.0000000   0.0000000   0.0000000
 NMagM=    0.0000000   2.7928460   2.7928460   0.0000000   2.7928460   0.0000000   2.7928460   0.0000000   2.7928460   0.0000000
 AtZNuc=   6.0000000   1.0000000   1.0000000   6.0000000   1.0000000   8.0000000   1.0000000   6.0000000   1.0000000   8.0000000

  Atom        11          12          13          14          15          16          17          18          19          20
 IAtWgt=           1          12           1          12           1          16          14          12           1          12
 AtmWgt=   1.0078250  12.0000000   1.0078250  12.0000000   1.0078250  15.9949146  14.0030740  12.0000000   1.0078250  12.0000000
 NucSpn=           1           0           1           0           1           0           2           0           1           0
 AtZEff=  -0.0000000  -0.0000000  -0.0000000  -0.0000000  -0.0000000  -0.0000000  -0.0000000  -0.0000000  -0.0000000  -0.0000000
 NQMom=    0.0000000   0.0000000   0.0000000   0.0000000   0.0000000   0.0000000   2.0440000   0.0000000   0.0000000   0.0000000
 NMagM=    2.7928460   0.0000000   2.7928460   0.0000000   2.7928460   0.0000000   0.4037610   0.0000000   2.7928460   0.0000000
 AtZNuc=   1.0000000   6.0000000   1.0000000   6.0000000   1.0000000   8.0000000   7.0000000   6.0000000   1.0000000   6.0000000

  Atom        21          22          23          24          25          26          27          28          29          30
 IAtWgt=           1          12           1           1          12          12           1          12          16          14
 AtmWgt=   1.0078250  12.0000000   1.0078250   1.0078250  12.0000000  12.0000000   1.0078250  12.0000000  15.9949146  14.0030740
 NucSpn=           1           0           1           1           0           0           1           0           0           2
 AtZEff=  -0.0000000  -0.0000000  -0.0000000  -0.0000000  -0.0000000  -0.0000000  -0.0000000  -0.0000000  -0.0000000  -0.0000000
 NQMom=    0.0000000   0.0000000   0.0000000   0.0000000   0.0000000   0.0000000   0.0000000   0.0000000   0.0000000   2.0440000
 NMagM=    2.7928460   0.0000000   2.7928460   2.7928460   0.0000000   0.0000000   2.7928460   0.0000000   0.0000000   0.4037610
 AtZNuc=   1.0000000   6.0000000   1.0000000   1.0000000   6.0000000   6.0000000   1.0000000   6.0000000   8.0000000   7.0000000

  Atom        31          32          33          34          35          36          37          38          39          40
 IAtWgt=           1           1          12          12          12          12          12          16          32           1
 AtmWgt=   1.0078250   1.0078250  12.0000000  12.0000000  12.0000000  12.0000000  12.0000000  15.9949146  31.9720718   1.0078250
 NucSpn=           1           1           0           0           0           0           0           0           0           1
 AtZEff=  -0.0000000  -0.0000000  -0.0000000  -0.0000000  -0.0000000  -0.0000000  -0.0000000  -0.0000000  -0.0000000  -0.0000000
 NQMom=    0.0000000   0.0000000   0.0000000   0.0000000   0.0000000   0.0000000   0.0000000   0.0000000   0.0000000   0.0000000
 NMagM=    2.7928460   2.7928460   0.0000000   0.0000000   0.0000000   0.0000000   0.0000000   0.0000000   0.0000000   2.7928460
 AtZNuc=   1.0000000   1.0000000   6.0000000   6.0000000   6.0000000   6.0000000   6.0000000   8.0000000  16.0000000   1.0000000

  Atom        41          42          43          44          45          46          47          48
 IAtWgt=           1           1           1           1           1           1           1           1
 AtmWgt=   1.0078250   1.0078250   1.0078250   1.0078250   1.0078250   1.0078250   1.0078250   1.0078250
 NucSpn=           1           1           1           1           1           1           1           1
 AtZEff=  -0.0000000  -0.0000000  -0.0000000  -0.0000000  -0.0000000  -0.0000000  -0.0000000  -0.0000000
 NQMom=    0.0000000   0.0000000   0.0000000   0.0000000   0.0000000   0.0000000   0.0000000   0.0000000
 NMagM=    2.7928460   2.7928460   2.7928460   2.7928460   2.7928460   2.7928460   2.7928460   2.7928460
 AtZNuc=   1.0000000   1.0000000   1.0000000   1.0000000   1.0000000   1.0000000   1.0000000   1.0000000
 Background charge distribution read from input stream:
 Leave Link  101 at Sun Apr  9 09:54:19 2023, MaxMem=  2684354560 cpu:               3.6 elap:               0.2
 (Enter /opt/gaussian/g16/l103.exe)

 GradGradGradGradGradGradGradGradGradGradGradGradGradGradGradGradGradGrad
 Berny optimization.
 Initialization pass.
 Trust Radius=3.00D-01 FncErr=1.00D-07 GrdErr=1.00D-07 EigMax=2.50D+02 EigMin=1.00D-04
 Number of steps in this run=      2 maximum allowed number of steps=      2.
 GradGradGradGradGradGradGradGradGradGradGradGradGradGradGradGradGradGrad

 Leave Link  103 at Sun Apr  9 09:54:19 2023, MaxMem=  2684354560 cpu:               0.4 elap:               0.0
 (Enter /opt/gaussian/g16/l202.exe)
 ---------------------------------------------------------------------------------------------------
                            Z-MATRIX (ANGSTROMS AND DEGREES)
   CD    Cent   Atom    N1       Length/X        N2       Alpha/Y        N3        Beta/Z          J
 ---------------------------------------------------------------------------------------------------
      1      1  C        0   3.529251         -3.734690         -0.697507
      2      2  H        0   3.629989         -3.897955         -1.766456
      3      3  H        0   4.422313         -4.087970         -0.189536
      4      4  C        0   1.669590         -1.363072          0.977848
      5      5  H        0   0.990886         -2.238366          0.947642
      6      6  O        0   1.371985         -0.519954          2.052829
      7      7  H        0   0.456036         -0.222542          1.963582
      8      8  C        0   3.126777         -1.859332          1.039354
      9      9  H        0   3.218821         -2.743063          1.694610
     10     10  O        0   3.898968         -0.784772          1.503253
     11     11  H        0   4.823293         -1.056266          1.504734
     12     12  C        0   1.682616         -0.704663         -0.423787
     13     13  H        0   2.258545          0.228988         -0.334270
     14     14  C        0   3.417159         -2.234395         -0.451454
     15     15  H        0   4.369075         -1.771583         -0.748311
     16     16  O        0   2.363852         -1.651161         -1.237218
     17     17  N        0   0.372307         -0.359116         -0.962882
     18     18  C        0  -0.593499         -1.343272         -1.167056
     19     19  H        0  -0.300643         -2.361956         -0.961546
     20     20  C        0  -1.789670         -1.045254         -1.637631
     21     21  H        0  -2.507346         -1.821595         -1.837839
     22     22  C        0  -2.185300          0.365451         -1.897168
     23     23  H        0  -2.910734          0.412535         -2.707107
     24     24  H        0  -2.698722          0.821065         -0.981018
     25     25  C        0  -0.971242          1.210410         -2.154564
     26     26  C        0   0.195296          0.857085         -1.617141
     27     27  H        0   1.056243          1.503690         -1.687238
     28     28  C        0  -1.137361          2.529314         -2.822248
     29     29  O        0  -0.471549          3.493536         -2.535527
     30     30  N        0  -2.243334          2.617098         -3.722268
     31     31  H        0  -2.135665          3.451495         -4.307867
     32     32  H        0  -2.313662          1.788882         -4.318946
     33     33  C        0   0.696205          2.097058          3.781425
     34     34  C        0  -1.056752          2.065384          1.706952
     35     35  C        0  -1.816498          2.733241          0.651078
     36     36  C        0  -3.827218          3.119858         -0.721251
     37     37  C        0  -3.000477          2.327835          0.219094
     38     38  O        0  -1.205735          0.900614          2.073035
     39     39  S        0   0.060502          3.139560          2.460583
     40     40  H        0  -0.150360          1.669718          4.318946
     41     41  H        0   1.273730          1.289782          3.335023
     42     42  H        0  -3.935451          2.625419         -1.682956
     43     43  H        0  -3.370132          4.087970         -0.899344
     44     44  H        0  -4.823293          3.259637         -0.304892
     45     45  H        0  -3.477032          1.478904          0.697402
     46     46  H        0  -1.355372          3.617381          0.235850
     47     47  H        0   2.646062         -4.251185         -0.321594
     48     48  H        0   1.329609          2.653486          4.472285
 ---------------------------------------------------------------------------------------------------
                         Z-Matrix orientation:                         
 ---------------------------------------------------------------------
 Center     Atomic      Atomic             Coordinates (Angstroms)
 Number     Number       Type             X           Y           Z
 ---------------------------------------------------------------------
      1          6           0        3.529251   -3.734690   -0.697507
      2          1           0        3.629989   -3.897955   -1.766456
      3          1           0        4.422313   -4.087970   -0.189536
      4          6           0        1.669590   -1.363072    0.977848
      5          1           0        0.990886   -2.238366    0.947642
      6          8           0        1.371985   -0.519954    2.052829
      7          1           0        0.456036   -0.222542    1.963582
      8          6           0        3.126777   -1.859332    1.039354
      9          1           0        3.218821   -2.743063    1.694610
     10          8           0        3.898968   -0.784772    1.503253
     11          1           0        4.823293   -1.056266    1.504734
     12          6           0        1.682616   -0.704663   -0.423787
     13          1           0        2.258545    0.228988   -0.334270
     14          6           0        3.417159   -2.234395   -0.451454
     15          1           0        4.369075   -1.771583   -0.748311
     16          8           0        2.363852   -1.651161   -1.237218
     17          7           0        0.372307   -0.359116   -0.962882
     18          6           0       -0.593499   -1.343272   -1.167056
     19          1           0       -0.300643   -2.361956   -0.961546
     20          6           0       -1.789670   -1.045254   -1.637631
     21          1           0       -2.507346   -1.821595   -1.837839
     22          6           0       -2.185300    0.365451   -1.897168
     23          1           0       -2.910734    0.412535   -2.707107
     24          1           0       -2.698722    0.821065   -0.981018
     25          6           0       -0.971242    1.210410   -2.154564
     26          6           0        0.195296    0.857085   -1.617141
     27          1           0        1.056243    1.503690   -1.687238
     28          6           0       -1.137361    2.529314   -2.822248
     29          8           0       -0.471549    3.493536   -2.535527
     30          7           0       -2.243334    2.617098   -3.722268
     31          1           0       -2.135665    3.451495   -4.307867
     32          1           0       -2.313662    1.788882   -4.318946
     33          6           0        0.696205    2.097058    3.781425
     34          6           0       -1.056752    2.065384    1.706952
     35          6           0       -1.816498    2.733241    0.651078
     36          6           0       -3.827218    3.119858   -0.721251
     37          6           0       -3.000477    2.327835    0.219094
     38          8           0       -1.205735    0.900614    2.073035
     39         16           0        0.060502    3.139560    2.460583
     40          1           0       -0.150360    1.669718    4.318946
     41          1           0        1.273730    1.289782    3.335023
     42          1           0       -3.935451    2.625419   -1.682956
     43          1           0       -3.370132    4.087970   -0.899344
     44          1           0       -4.823293    3.259637   -0.304892
     45          1           0       -3.477032    1.478904    0.697402
     46          1           0       -1.355372    3.617381    0.235850
     47          1           0        2.646062   -4.251185   -0.321594
     48          1           0        1.329609    2.653486    4.472285
 ---------------------------------------------------------------------
                    Distance matrix (angstroms):
                    1          2          3          4          5
     1  C    0.000000
     2  H    1.086028   0.000000
     3  H    1.086463   1.774982   0.000000
     4  C    3.448148   4.219005   4.045409   0.000000
     5  H    3.374729   4.133452   4.060652   1.108012   0.000000
     6  O    4.748965   5.576416   5.202253   1.398213   2.078368
     7  H    5.372265   6.123383   5.942121   1.935250   2.319859
     8  C    2.587594   3.504537   2.855768   1.540601   2.171199
     9  H    2.608048   3.671759   2.609056   2.195049   2.403408
    10  O    3.698926   4.522749   3.748405   2.362331   3.298269
    11  H    3.701131   4.494426   3.496079   3.212099   4.049080
    12  C    3.558940   3.973933   4.359769   1.548629   2.170612
    13  H    4.178203   4.578611   4.831042   2.145501   3.055830
    14  C    1.524465   2.131188   2.124776   2.419939   2.800765
    15  H    2.135808   2.470694   2.383425   3.230128   3.808714
    16  O    2.447557   2.632733   3.357519   2.339126   2.646405
    17  N    4.629387   4.876639   5.559224   2.541123   2.750332
    18  C    4.789199   4.972277   5.800628   3.118104   2.789878
    19  H    4.077034   4.296166   5.087380   2.939530   2.308316
    20  C    6.033889   6.125944   7.067094   4.348357   3.979780
    21  H    6.434345   6.479448   7.474860   5.058175   4.491129
    22  C    7.134874   7.211886   8.149203   5.110154   4.996095
    23  H    7.919051   7.889626   8.964724   6.140931   5.967170
    24  H    7.721589   7.933388   8.685287   5.262106   5.166533
    25  C    6.843353   6.886026   7.811825   4.838265   5.036635
    26  C    5.748511   5.867693   6.660277   3.719758   4.097913
    27  H    5.876731   5.983996   6.696282   3.961969   4.577101
    28  C    8.095032   8.071686   9.034910   6.121305   6.439898
    29  O    8.463568   8.488123   9.323776   6.365133   6.864830
    30  N    9.100392   8.987049  10.093017   7.296836   7.472870
    31  H    9.837033   9.680700  10.807925   8.099308   8.352857
    32  H    8.818406   8.612914   9.846967   7.338741   7.407814
    33  C    7.880119   8.679070   8.240569   4.558511   5.187781
    34  C    7.775199   8.342154   8.454619   4.440591   4.826142
    35  C    8.498814   8.915237   9.282150   5.388818   5.717188
    36  C   10.055000  10.293303  10.967692   7.293730   7.396615
    37  C    8.957216   9.309455   9.819743   6.000669   6.108352
    38  O    7.182063   7.819986   7.853669   3.819843   3.993100
    39  S    8.322324   8.951856   8.847921   5.006132   5.663629
    40  H    8.240872   9.073156   8.624774   4.865488   5.285949
    41  H    6.825980   7.647854   7.159351   3.570801   4.269358
    42  H    9.856159   9.989858  10.823683   7.375935   7.405758
    43  H   10.432461  10.654979  11.316891   7.657447   7.902681
    44  H   10.901364  11.172523  11.810244   8.072941   8.099479
    45  H    8.843944   9.246132   9.704452   5.885847   5.817475
    46  H    8.876016   9.238146   9.640282   5.874170   6.348335
    47  H    1.090000   1.783399   1.788616   3.314097   2.898621
    48  H    8.507290   9.334615   8.760401   5.334737   6.038879
                    6          7          8          9         10
     6  O    0.000000
     7  H    0.967151   0.000000
     8  C    2.429066   3.265905   0.000000
     9  H    2.912273   3.749447   1.103998   0.000000
    10  O    2.599578   3.518776   1.402198   2.081855   0.000000
    11  H    3.535472   4.469739   1.933820   2.335737   0.963373
    12  C    2.502845   2.726989   2.357891   3.317018   2.938047
    13  H    2.654269   2.955172   2.646082   3.724455   2.663679
    14  C    3.659710   4.318356   1.564450   2.214423   2.480812
    15  H    4.288999   5.006572   2.178704   2.869621   2.502866
    16  O    3.617711   3.990718   2.410015   3.243275   3.258434
    17  N    3.181153   2.930845   3.721116   4.565973   4.324389
    18  C    3.861170   3.486897   4.356032   4.968131   5.255923
    19  H    3.908594   3.702165   4.000430   4.425724   5.118542
    20  C    4.887892   4.323052   5.656892   6.250709   6.503353
    21  H    5.646306   5.078327   6.326374   6.790897   7.299230
    22  C    5.388941   4.714634   6.464595   7.195015   7.064290
    23  H    6.470564   5.792564   7.459819   8.179508   8.095228
    24  H    5.251020   4.439851   6.723308   7.408057   7.230479
    25  C    5.117326   4.587984   6.034749   6.928399   6.409316
    26  C    4.092616   3.749020   4.798903   5.750692   5.113681
    27  H    4.264145   4.082721   4.799097   5.843676   4.847409
    28  C    6.273852   5.745937   7.235680   8.196114   7.420090
    29  O    6.368652   5.908606   7.374342   8.390951   7.329194
    30  N    7.500891   6.905001   8.458698   9.375982   8.752523
    31  H    8.278554   7.716640   9.191896  10.152477   9.387857
    32  H    7.714546   7.154523   8.462814   9.343968   8.894856
    33  C    3.208345   2.956820   5.392556   5.843386   4.873675
    34  C    3.564038   2.754813   5.775033   6.434426   5.720494
    35  C    4.765984   3.952686   6.758583   7.512210   6.765291
    36  C    6.926432   6.060217   8.732131   9.479287   8.938037
    37  C    5.530905   4.636286   7.466488   8.159094   7.677222
    38  O    2.943307   2.008716   5.239891   5.744238   5.405846
    39  S    3.908746   3.421577   6.034141   6.720635   5.572314
    40  H    3.499641   3.081576   5.826624   6.140941   5.509057
    41  H    2.220095   2.199227   4.315183   4.768456   3.814582
    42  H    7.212374   6.379128   8.797672   9.560970   9.119181
    43  H    7.241268   6.435559   9.018801   9.838999   9.075015
    44  H    7.630571   6.718843   9.550626  10.232595   9.782866
    45  H    5.417156   4.468462   7.407499   7.978338   7.757513
    46  H    5.278014   4.583805   7.122476   7.969095   6.970893
    47  H    4.602525   5.123300   2.793605   2.582162   4.112889
    48  H    3.990776   3.915133   5.948139   6.356677   5.219040
                   11         12         13         14         15
    11  H    0.000000
    12  C    3.702252   0.000000
    13  H    3.407600   1.100642   0.000000
    14  C    2.681767   2.312896   2.724771   0.000000
    15  H    2.407116   2.908728   2.937354   1.099302   0.000000
    16  O    3.731092   1.421834   2.088388   1.437722   2.067474
    17  N    5.136772   1.458401   2.073382   3.612389   4.244439
    18  C    6.046690   2.478097   3.361501   4.170319   4.998594
    19  H    5.834559   2.639909   3.695390   3.754799   4.711717
    20  C    7.321602   3.694074   4.439650   5.471027   6.264869
    21  H    8.093009   4.561015   5.401790   6.098543   6.962381
    22  C    7.919254   4.275133   4.712646   6.343251   6.989035
    23  H    8.928166   5.249813   5.690826   7.220557   7.848750
    24  H    8.141501   4.672737   5.034217   6.857134   7.531915
    25  C    7.218374   3.702169   3.835126   5.833124   6.276051
    26  C    5.901302   2.464806   2.509434   4.614811   5.008512
    27  H    5.561720   2.620205   2.213802   4.590683   4.752247
    28  C    8.191981   4.915637   4.797261   7.004088   7.288331
    29  O    8.065963   5.169598   4.791265   7.230118   7.372059
    30  N    9.526404   6.109595   6.119520   8.141032   8.475193
    31  H   10.125874   6.851203   6.744117   8.833749   9.069874
    32  H    9.640863   6.112304   6.262267   7.999160   8.371697
    33  C    5.670946   5.148442   4.782210   6.639454   6.998205
    34  C    6.660369   4.440422   4.304664   6.569833   7.084507
    35  C    7.692588   5.021783   4.883459   7.299599   7.779013
    36  C    9.860343   6.713696   6.748585   9.012315   9.544954
    37  C    8.620695   5.616110   5.689349   7.902508   8.488310
    38  O    6.364080   4.141691   4.271701   6.129639   6.795523
    39  S    6.418939   5.072366   4.595000   6.973270   7.278745
    40  H    6.331508   5.611685   5.434238   7.122219   7.612158
    41  H    4.631770   4.274770   3.944472   5.599243   5.968814
    42  H   10.021565   6.651137   6.776978   8.899172   9.443111
    43  H    9.968699   6.980382   6.847851   9.286562   9.708372
    44  H   10.721864   7.619491   7.703124   9.905096  10.488538
    45  H    8.716322   5.713755   5.960158   7.914438   8.614938
    46  H    7.850410   5.323960   4.986647   7.582396   7.923308
    47  H    4.275899   3.676478   4.496919   2.163075   3.049473
    48  H    5.896986   5.947546   5.462974   7.245168   7.488272
                   16         17         18         19         20
    16  O    0.000000
    17  N    2.389747   0.000000
    18  C    2.974163   1.393926   0.000000
    19  H    2.771418   2.112873   1.079683   0.000000
    20  C    4.216538   2.366477   1.319500   2.099522   0.000000
    21  H    4.911045   3.346162   2.083640   2.435040   1.076033
    22  C    5.019665   2.817665   2.446758   3.444716   1.487942
    23  H    5.851553   3.796857   3.290014   4.190150   2.127372
    24  H    5.639787   3.290042   3.025050   3.985321   2.177307
    25  C    4.489206   2.385087   2.763902   3.825545   2.454601
    26  C    3.337405   1.392311   2.380408   3.322346   2.749437
    27  H    3.444625   2.112464   3.331280   4.160647   3.820837
    28  C    5.678661   3.752248   4.246454   5.299701   3.821828
    29  O    6.016063   4.245966   5.028150   6.065757   4.810850
    30  N    6.754234   4.828420   4.993555   6.015531   4.238437
    31  H    7.464023   5.656819   5.935719   6.954234   5.241243
    32  H    6.573437   4.805360   4.764846   5.705596   3.936540
    33  C    6.482050   5.352210   6.163333   6.585764   6.739427
    34  C    5.846484   3.879230   4.482573   5.224359   4.625957
    35  C    6.345389   4.118058   4.628098   5.555124   4.417684
    36  C    7.833147   5.458723   5.529485   6.522634   4.726470
    37  C    6.835882   4.471291   4.603475   5.538696   4.036238
    38  O    5.496478   3.646084   3.988489   4.546673   4.230417
    39  S    6.475350   4.904903   5.803728   6.489073   6.142570
    40  H    6.944095   5.682170   6.274607   6.645343   6.748276
    41  H    5.544628   4.690780   5.539696   5.854430   6.290000
    42  H    7.626863   5.289871   5.213953   6.213386   4.252091
    43  H    8.119751   5.812612   6.105714   7.143331   5.421524
    44  H    8.754440   6.365735   6.310408   7.244851   5.432417
    45  H    6.903332   4.577365   4.444732   5.252976   3.830267
    46  H    6.615141   4.498262   5.211206   6.188593   5.043681
    47  H    2.770945   4.552957   4.434582   3.558341   5.629001
    48  H    7.224823   6.287547   7.174579   7.572246   7.793694
                   21         22         23         24         25
    21  H    0.000000
    22  C    2.211426   0.000000
    23  H    2.430984   1.088335   0.000000
    24  H    2.784676   1.144778   1.786402   0.000000
    25  C    3.413647   1.501381   2.168764   2.124380   0.000000
    26  C    3.811602   2.446907   3.321607   2.963325   1.332094
    27  H    4.876409   3.441984   4.238827   3.881300   2.101215
    28  C    4.666512   2.576093   2.763850   2.957380   1.487584
    29  O    5.734271   3.623446   3.933400   3.810368   2.368014
    30  N    4.829366   2.899013   2.517156   3.308711   2.460627
    31  H    5.834780   3.916325   3.521142   4.278332   3.318893
    32  H    4.385082   2.812053   2.202010   3.496671   2.611755
    33  C    7.562719   6.599087   7.612403   5.986197   6.229165
    34  C    5.456957   4.141627   5.064887   3.386677   3.955958
    35  C    5.236269   3.497999   4.226161   2.664296   3.302287
    36  C    5.235150   3.415470   3.480398   2.573991   3.722496
    37  C    4.657459   2.999005   3.498440   1.949790   3.316728
    38  O    4.939590   4.124131   5.098530   3.400379   4.245416
    39  S    7.048641   5.632877   6.555146   4.983308   5.107417
    40  H    7.459937   6.669495   7.652817   5.941715   6.541494
    41  H    7.122901   6.339960   7.401800   5.884580   5.931422
    42  H    4.673265   2.866421   2.644955   2.297370   3.318312
    43  H    6.045505   4.031951   4.121636   3.336185   3.951025
    44  H    5.790722   4.227370   4.187423   3.304176   4.739083
    45  H    4.273293   3.104858   3.612274   1.963571   3.805888
    46  H    5.933776   3.976631   4.620735   3.332378   3.413963
    47  H    5.895720   6.865698   7.636683   7.397923   6.802476
    48  H    8.635175   7.626245   8.634006   7.023086   7.161810
                   26         27         28         29         30
    26  C    0.000000
    27  H    1.079000   0.000000
    28  C    2.454508   2.674332   0.000000
    29  O    2.870364   2.648250   1.206333   0.000000
    30  N    3.670984   4.033390   1.428607   2.305585   0.000000
    31  H    4.405037   4.566171   2.013478   2.431510   1.025054
    32  H    3.803008   4.285263   2.042555   3.078930   1.023188
    33  C    5.561740   5.512531   6.867118   6.574016   8.075688
    34  C    3.751960   4.037423   4.553612   4.514500   5.584693
    35  C    3.565402   3.902840   3.544969   3.541382   4.395661
    36  C    4.701423   5.233863   3.463850   3.832981   3.430387
    37  C    3.968354   4.557444   3.572332   3.916921   4.023838
    38  O    3.947427   4.429436   5.159567   5.338644   6.132575
    39  S    4.675007   4.568588   5.451200   5.036814   6.618783
    40  H    6.001414   6.128434   7.260146   7.100231   8.362966
    41  H    5.086666   5.031518   6.727688   6.508909   7.996053
    42  H    4.493819   5.116181   3.022669   3.671392   2.649929
    43  H    4.864784   5.185757   3.333501   3.381158   3.376690
    44  H    5.716685   6.289926   4.522891   4.895724   4.329839
    45  H    4.385175   5.122276   4.354923   4.852165   4.727683
    46  H    3.668430   3.739231   3.253211   2.911531   4.178007
    47  H    5.811980   6.124630   8.157372   8.637227   9.090879
    48  H    6.449405   6.271881   7.701401   7.284181   8.939684
                   31         32         33         34         35
    31  H    0.000000
    32  H    1.672151   0.000000
    33  C    8.677017   8.646981   0.000000
    34  C    6.266052   6.161796   2.716118   0.000000
    35  C    5.020846   5.083318   4.064170   1.462230   0.000000
    36  C    3.979340   4.123804   6.463867   3.831915   2.464905
    37  C    4.743826   4.621254   5.138961   2.461843   1.323923
    38  O    6.934528   6.547820   2.822667   1.230001   2.398649
    39  S    7.122666   7.309104   1.798763   1.723389   2.638661
    40  H    9.029843   8.905462   1.090055   2.792957   4.166575
    41  H    8.643538   8.467687   1.088349   2.946747   4.340120
    42  H    3.288128   3.206000   7.182678   4.482413   3.154252
    43  H    3.680630   4.253894   6.512175   4.029312   2.579317
    44  H    4.825346   4.957217   6.965230   4.434026   3.198717
    45  H    5.544646   5.158805   5.225823   2.687174   2.081558
    46  H    4.613213   5.000789   4.369377   2.159169   1.080164
    47  H    9.903866   8.778387   7.806209   7.597689   8.345222
    48  H    9.472910   9.555454   1.090000   3.699682   4.950351
                   36         37         38         39         40
    36  C    0.000000
    37  C    1.481570   0.000000
    38  O    4.427783   2.948756   0.000000
    39  S    5.023826   3.879789   2.601236   0.000000
    40  H    6.405137   5.036375   2.597971   2.378741   0.000000
    41  H    6.769211   5.390307   2.809237   2.378706   1.772142
    42  H    1.086766   2.140217   4.953158   5.779352   7.159826
    43  H    1.085304   2.117929   4.866096   4.894675   6.591314
    44  H    1.088604   2.113166   4.930137   5.613709   6.763432
    45  H    2.197257   1.084697   2.717642   4.287276   4.921254
    46  H    2.696960   2.090354   3.283058   2.680010   4.681572
    47  H    9.818113   8.686728   6.863790   8.309557   8.025689
    48  H    7.333703   6.078267   3.906012   2.427724   1.783709
                   41         42         43         44         45
    41  H    0.000000
    42  H    7.355244   0.000000
    43  H    6.879329   1.752909   0.000000
    44  H    7.369056   1.757714   1.775158   0.000000
    45  H    5.437146   2.681558   3.060760   2.447043   0.000000
    46  H    4.683457   3.364909   2.359952   3.528010   3.047549
    47  H    6.779119   9.615472  10.299023  10.592638   8.447754
    48  H    1.776563   8.099916   7.280090   7.813261   6.223599
                   46         47         48
    46  H    0.000000
    47  H    8.845142   0.000000
    48  H    5.107407   8.508161   0.000000
 Symmetry turned off by external request.
 Stoichiometry    C16H24N2O5S
 Framework group  C1[X(C16H24N2O5S)]
 Deg. of freedom   138
 Full point group                 C1      NOp   1
 Rotational constants (GHZ):           0.2849912           0.1655622           0.1234262
 Leave Link  202 at Sun Apr  9 09:54:19 2023, MaxMem=  2684354560 cpu:               0.0 elap:               0.0
 (Enter /opt/gaussian/g16/l301.exe)
 Standard basis: def2TZVP (5D, 7F)
 Ernie: Thresh=  0.10000D-02 Tol=  0.10000D-05 Strict=F.
   894 basis functions,  1434 primitive gaussians,  1014 cartesian basis functions
    95 alpha electrons       95 beta electrons
       nuclear repulsion energy      2422.2646336322 Hartrees.
 IExCor= 4336 DFT=T Ex+Corr=M062X ExCW=0 ScaHFX=  0.540000
 ScaDFX=  1.000000  1.000000  1.000000  1.000000 ScalE2=  1.000000  1.000000
 IRadAn=      5 IRanWt=     -1 IRanGd=            0 ICorTp=0 IEmpDi=131
 NAtoms=   48 NActive=   48 NUniq=   48 SFac= 1.00D+00 NAtFMM=   60 NAOKFM=F Big=F
 Integral buffers will be    131072 words long.
 Raffenetti 2 integral format.
 Two-electron integral symmetry is turned off.
 R6Disp:  Grimme-D3 Dispersion energy=       -0.0041741470 Hartrees.
 Nuclear repulsion after empirical dispersion term =     2422.2604594852 Hartrees.
 Leave Link  301 at Sun Apr  9 09:54:19 2023, MaxMem=  2684354560 cpu:               0.8 elap:               0.1
 (Enter /opt/gaussian/g16/l302.exe)
 NPDir=0 NMtPBC=     1 NCelOv=     1 NCel=       1 NClECP=     1 NCelD=      1
         NCelK=      1 NCelE2=     1 NClLst=     1 CellRange=     0.0.
 One-electron integrals computed using PRISM.
   1 Symmetry operations used in ECPInt.
 ECPInt:  NShTT=   65703 NPrTT=  200010 LenC2=   55880 LenP2D=  118195.
 LDataN:  DoStor=T MaxTD1= 6 Len=  172
 NBasis=   894 RedAO= T EigKep=  3.26D-05  NBF=   894
 NBsUse=   894 1.00D-06 EigRej= -1.00D+00 NBFU=   894
 Precomputing XC quadrature grid using
 IXCGrd= 4 IRadAn=           5 IRanWt=          -1 IRanGd=           0 AccXCQ= 0.00D+00.
 Generated NRdTot=       0 NPtTot=           0 NUsed=           0 NTot=          32
 NSgBfM=   997   995   995   996   997 MxSgAt=    48 MxSgA2=    48.
 Leave Link  302 at Sun Apr  9 09:54:21 2023, MaxMem=  2684354560 cpu:              37.5 elap:               2.3
 (Enter /opt/gaussian/g16/l303.exe)
 DipDrv:  MaxL=1.
 Leave Link  303 at Sun Apr  9 09:54:22 2023, MaxMem=  2684354560 cpu:               5.0 elap:               0.3
 (Enter /opt/gaussian/g16/l401.exe)
 ExpMin= 9.52D-02 ExpMax= 6.07D+04 ExpMxC= 2.07D+03 IAcc=3 IRadAn=         5 AccDes= 0.00D+00
 Harris functional with IExCor= 1009 and IRadAn=       5 diagonalized for initial guess.
 HarFok:  IExCor= 1009 AccDes= 0.00D+00 IRadAn=         5 IDoV= 1 UseB2=F ITyADJ=14
 ICtDFT=  3500011 ScaDFX=  1.000000  1.000000  1.000000  1.000000
 FoFCou: FMM=F IPFlag=           0 FMFlag=      100000 FMFlg1=           0
         NFxFlg=           0 DoJE=T BraDBF=F KetDBF=T FulRan=T
         wScrn=  0.000000 ICntrl=       500 IOpCl=  0 I1Cent=   200000004 NGrid=           0
         NMat0=    1 NMatS0=      1 NMatT0=    0 NMatD0=    1 NMtDS0=    0 NMtDT0=    0
 Symmetry not used in FoFCou.
 Harris En= -1507.23414413595    
 JPrj=0 DoOrth=F DoCkMO=F.
 Leave Link  401 at Sun Apr  9 09:54:30 2023, MaxMem=  2684354560 cpu:             136.5 elap:               8.6
 (Enter /opt/gaussian/g16/l502.exe)
 Two-electron integral symmetry not used.
 Closed shell SCF:
 Using DIIS extrapolation, IDIIS=  1040.
 NGot=  2684354560 LenX=  2682275214 LenY=  2681246004
 Requested convergence on RMS density matrix=1.00D-08 within 128 cycles.
 Requested convergence on MAX density matrix=1.00D-06.
 Requested convergence on             energy=1.00D-06.
 No special actions if energy rises.
 Fock matrices will be formed incrementally for  20 cycles.
 Integral accuracy reduced to 1.0D-05 until final iterations.

 Cycle   1  Pass 0  IDiag  1:
 FoFJK:  IHMeth= 1 ICntrl=       0 DoSepK=F KAlg= 0 I1Cent=           0 FoldK=F
 IRaf= 770000000 NMat=       1 IRICut=       1 DoRegI=T DoRafI=F ISym2E= 0 IDoP0=0 IntGTp=1.
 FoFCou: FMM=F IPFlag=           0 FMFlag=      100000 FMFlg1=           0
         NFxFlg=           0 DoJE=F BraDBF=F KetDBF=F FulRan=T
         wScrn=  0.000000 ICntrl=         0 IOpCl=  0 I1Cent=           0 NGrid=           0
         NMat0=    1 NMatS0=      1 NMatT0=    0 NMatD0=    1 NMtDS0=    0 NMtDT0=    0
 Symmetry not used in FoFCou.
 E= -1507.12842988263    
 DIIS: error= 1.47D-02 at cycle   1 NSaved=   1.
 NSaved= 1 IEnMin= 1 EnMin= -1507.12842988263     IErMin= 1 ErrMin= 1.47D-02
 ErrMax= 1.47D-02  0.00D+00 EMaxC= 1.00D-01 BMatC= 1.02D+00 BMatP= 1.02D+00
 IDIUse=3 WtCom= 8.53D-01 WtEn= 1.47D-01
 Coeff-Com:  0.100D+01
 Coeff-En:   0.100D+01
 Coeff:      0.100D+01
 Gap=     0.319 Goal=   None    Shift=    0.000
 GapD=    0.319 DampG=1.000 DampE=0.500 DampFc=0.5000 IDamp=-1.
 Damping current iteration by 5.00D-01
 RMSDP=3.51D-03 MaxDP=9.48D-01              OVMax= 2.40D-01

 Cycle   2  Pass 0  IDiag  1:
 RMSU=  1.75D-03    CP:  1.01D+00
 E= -1507.47225787761     Delta-E=       -0.343827994986 Rises=F Damp=T
 DIIS: error= 4.59D-03 at cycle   2 NSaved=   2.
 NSaved= 2 IEnMin= 2 EnMin= -1507.47225787761     IErMin= 2 ErrMin= 4.59D-03
 ErrMax= 4.59D-03  0.00D+00 EMaxC= 1.00D-01 BMatC= 9.25D-02 BMatP= 1.02D+00
 IDIUse=3 WtCom= 9.54D-01 WtEn= 4.59D-02
 Coeff-Com:  0.637D-02 0.994D+00
 Coeff-En:   0.612D-01 0.939D+00
 Coeff:      0.888D-02 0.991D+00
 Gap=     0.327 Goal=   None    Shift=    0.000
 RMSDP=1.15D-03 MaxDP=3.04D-01 DE=-3.44D-01 OVMax= 1.89D-01

 Cycle   3  Pass 0  IDiag  1:
 RMSU=  9.69D-04    CP:  9.94D-01  6.50D-01
 E= -1507.84660795869     Delta-E=       -0.374350081076 Rises=F Damp=F
 DIIS: error= 6.92D-03 at cycle   3 NSaved=   3.
 NSaved= 3 IEnMin= 3 EnMin= -1507.84660795869     IErMin= 2 ErrMin= 4.59D-03
 ErrMax= 6.92D-03  0.00D+00 EMaxC= 1.00D-01 BMatC= 6.05D-02 BMatP= 9.25D-02
 IDIUse=3 WtCom= 9.31D-01 WtEn= 6.92D-02
 Coeff-Com: -0.754D-01 0.465D+00 0.610D+00
 Coeff-En:   0.000D+00 0.000D+00 0.100D+01
 Coeff:     -0.702D-01 0.433D+00 0.637D+00
 Gap=     0.224 Goal=   None    Shift=    0.000
 RMSDP=3.63D-04 MaxDP=3.11D-02 DE=-3.74D-01 OVMax= 7.70D-02

 Cycle   4  Pass 0  IDiag  1:
 RMSU=  3.32D-04    CP:  9.95D-01  7.24D-01  9.28D-01
 E= -1507.88594182222     Delta-E=       -0.039333863525 Rises=F Damp=F
 DIIS: error= 3.56D-03 at cycle   4 NSaved=   4.
 NSaved= 4 IEnMin= 4 EnMin= -1507.88594182222     IErMin= 4 ErrMin= 3.56D-03
 ErrMax= 3.56D-03  0.00D+00 EMaxC= 1.00D-01 BMatC= 1.27D-02 BMatP= 6.05D-02
 IDIUse=3 WtCom= 9.64D-01 WtEn= 3.56D-02
 Coeff-Com: -0.335D-01 0.944D-01 0.349D+00 0.590D+00
 Coeff-En:   0.000D+00 0.000D+00 0.152D+00 0.848D+00
 Coeff:     -0.323D-01 0.910D-01 0.342D+00 0.599D+00
 Gap=     0.224 Goal=   None    Shift=    0.000
 RMSDP=1.22D-04 MaxDP=1.11D-02 DE=-3.93D-02 OVMax= 1.91D-02

 Cycle   5  Pass 0  IDiag  1:
 RMSU=  7.77D-05    CP:  9.95D-01  7.22D-01  9.57D-01  7.30D-01
 E= -1507.89536928984     Delta-E=       -0.009427467625 Rises=F Damp=F
 DIIS: error= 3.62D-04 at cycle   5 NSaved=   5.
 NSaved= 5 IEnMin= 5 EnMin= -1507.89536928984     IErMin= 5 ErrMin= 3.62D-04
 ErrMax= 3.62D-04  0.00D+00 EMaxC= 1.00D-01 BMatC= 5.08D-04 BMatP= 1.27D-02
 IDIUse=3 WtCom= 9.96D-01 WtEn= 3.62D-03
 Coeff-Com: -0.890D-02 0.140D-01 0.119D+00 0.270D+00 0.606D+00
 Coeff-En:   0.000D+00 0.000D+00 0.000D+00 0.000D+00 0.100D+01
 Coeff:     -0.887D-02 0.139D-01 0.119D+00 0.269D+00 0.607D+00
 Gap=     0.224 Goal=   None    Shift=    0.000
 RMSDP=4.54D-05 MaxDP=1.08D-02 DE=-9.43D-03 OVMax= 4.45D-03

 Cycle   6  Pass 0  IDiag  1:
 RMSU=  3.20D-05    CP:  9.94D-01  7.08D-01  9.69D-01  7.57D-01  8.71D-01
 E= -1507.89577248648     Delta-E=       -0.000403196639 Rises=F Damp=F
 DIIS: error= 1.56D-04 at cycle   6 NSaved=   6.
 NSaved= 6 IEnMin= 6 EnMin= -1507.89577248648     IErMin= 6 ErrMin= 1.56D-04
 ErrMax= 1.56D-04  0.00D+00 EMaxC= 1.00D-01 BMatC= 5.79D-05 BMatP= 5.08D-04
 IDIUse=3 WtCom= 9.98D-01 WtEn= 1.56D-03
 Coeff-Com:  0.724D-03-0.582D-02 0.948D-02 0.392D-01 0.262D+00 0.694D+00
 Coeff-En:   0.000D+00 0.000D+00 0.000D+00 0.000D+00 0.000D+00 0.100D+01
 Coeff:      0.722D-03-0.581D-02 0.947D-02 0.391D-01 0.262D+00 0.694D+00
 Gap=     0.225 Goal=   None    Shift=    0.000
 RMSDP=1.78D-05 MaxDP=1.31D-03 DE=-4.03D-04 OVMax= 2.50D-03

 Cycle   7  Pass 0  IDiag  1:
 RMSU=  1.57D-05    CP:  9.94D-01  7.06D-01  9.75D-01  7.64D-01  9.41D-01
                    CP:  1.00D+00
 E= -1507.89584513316     Delta-E=       -0.000072646676 Rises=F Damp=F
 DIIS: error= 5.57D-05 at cycle   7 NSaved=   7.
 NSaved= 7 IEnMin= 7 EnMin= -1507.89584513316     IErMin= 7 ErrMin= 5.57D-05
 ErrMax= 5.57D-05  0.00D+00 EMaxC= 1.00D-01 BMatC= 9.37D-06 BMatP= 5.79D-05
 IDIUse=1 WtCom= 1.00D+00 WtEn= 0.00D+00
 Coeff-Com:  0.178D-02-0.491D-02-0.125D-01-0.259D-01 0.106D-01 0.280D+00
 Coeff-Com:  0.751D+00
 Coeff:      0.178D-02-0.491D-02-0.125D-01-0.259D-01 0.106D-01 0.280D+00
 Coeff:      0.751D+00
 Gap=     0.225 Goal=   None    Shift=    0.000
 RMSDP=1.49D-05 MaxDP=3.57D-03 DE=-7.26D-05 OVMax= 2.13D-03

 Cycle   8  Pass 0  IDiag  1:
 RMSU=  1.03D-05    CP:  9.94D-01  7.02D-01  9.77D-01  7.72D-01  1.00D+00
                    CP:  1.17D+00  1.20D+00
 E= -1507.89585967511     Delta-E=       -0.000014541958 Rises=F Damp=F
 DIIS: error= 3.69D-05 at cycle   8 NSaved=   8.
 NSaved= 8 IEnMin= 8 EnMin= -1507.89585967511     IErMin= 8 ErrMin= 3.69D-05
 ErrMax= 3.69D-05  0.00D+00 EMaxC= 1.00D-01 BMatC= 2.20D-06 BMatP= 9.37D-06
 IDIUse=1 WtCom= 1.00D+00 WtEn= 0.00D+00
 Coeff-Com:  0.785D-03-0.135D-02-0.723D-02-0.212D-01-0.433D-01 0.205D-02
 Coeff-Com:  0.362D+00 0.708D+00
 Coeff:      0.785D-03-0.135D-02-0.723D-02-0.212D-01-0.433D-01 0.205D-02
 Coeff:      0.362D+00 0.708D+00
 Gap=     0.225 Goal=   None    Shift=    0.000
 RMSDP=1.17D-05 MaxDP=1.11D-03 DE=-1.45D-05 OVMax= 6.36D-04

 Cycle   9  Pass 0  IDiag  1:
 RMSU=  7.18D-06    CP:  9.94D-01  7.01D-01  9.78D-01  7.72D-01  1.04D+00
                    CP:  1.25D+00  1.58D+00  1.46D+00
 E= -1507.89585245640     Delta-E=        0.000007218714 Rises=F Damp=F
 DIIS: error= 1.66D-05 at cycle   9 NSaved=   9.
 NSaved= 9 IEnMin= 8 EnMin= -1507.89585967511     IErMin= 9 ErrMin= 1.66D-05
 ErrMax= 1.66D-05  0.00D+00 EMaxC= 1.00D-01 BMatC= 3.04D-07 BMatP= 2.20D-06
 IDIUse=1 WtCom= 1.00D+00 WtEn= 0.00D+00
 Coeff-Com:  0.110D-03-0.182D-04-0.981D-03-0.541D-02-0.168D-01-0.316D-01
 Coeff-Com:  0.560D-01 0.270D+00 0.728D+00
 Coeff:      0.110D-03-0.182D-04-0.981D-03-0.541D-02-0.168D-01-0.316D-01
 Coeff:      0.560D-01 0.270D+00 0.728D+00
 Gap=     0.225 Goal=   None    Shift=    0.000
 RMSDP=1.41D-05 MaxDP=1.27D-03 DE= 7.22D-06 OVMax= 2.44D-04

 Cycle  10  Pass 0  IDiag  1:
 RMSU=  4.68D-06    CP:  9.94D-01  6.99D-01  9.80D-01  7.74D-01  1.07D+00
                    CP:  1.32D+00  1.93D+00  2.25D+00  2.12D+00
 E= -1507.89584134434     Delta-E=        0.000011112063 Rises=F Damp=F
 DIIS: error= 2.53D-05 at cycle  10 NSaved=  10.
 NSaved=10 IEnMin= 8 EnMin= -1507.89585967511     IErMin= 9 ErrMin= 1.66D-05
 ErrMax= 2.53D-05  0.00D+00 EMaxC= 1.00D-01 BMatC= 2.84D-07 BMatP= 3.04D-07
 IDIUse=1 WtCom= 1.00D+00 WtEn= 0.00D+00
 Coeff-Com:  0.994D-04-0.159D-04-0.869D-03-0.492D-02-0.153D-01-0.292D-01
 Coeff-Com:  0.505D-01 0.246D+00 0.670D+00 0.837D-01
 Coeff:      0.994D-04-0.159D-04-0.869D-03-0.492D-02-0.153D-01-0.292D-01
 Coeff:      0.505D-01 0.246D+00 0.670D+00 0.837D-01
 Gap=     0.225 Goal=   None    Shift=    0.000
 RMSDP=2.34D-06 MaxDP=1.60D-04 DE= 1.11D-05 OVMax= 7.47D-06

 Initial convergence to 1.0D-05 achieved.  Increase integral accuracy.
 Cycle  11  Pass 1  IDiag  1:
 E= -1507.89574007382     Delta-E=        0.000101270513 Rises=F Damp=F
 DIIS: error= 2.97D-04 at cycle   1 NSaved=   1.
 NSaved= 1 IEnMin= 1 EnMin= -1507.89574007382     IErMin= 1 ErrMin= 2.97D-04
 ErrMax= 2.97D-04  0.00D+00 EMaxC= 1.00D-01 BMatC= 8.22D-05 BMatP= 8.22D-05
 IDIUse=3 WtCom= 9.97D-01 WtEn= 2.97D-03
 Coeff-Com:  0.100D+01
 Coeff-En:   0.100D+01
 Coeff:      0.100D+01
 Gap=     0.225 Goal=   None    Shift=    0.000
 RMSDP=2.34D-06 MaxDP=1.60D-04 DE= 1.01D-04 OVMax= 8.05D-04

 Cycle  12  Pass 1  IDiag  1:
 RMSU=  4.03D-04    CP:  9.96D-01
 E= -1507.89579216869     Delta-E=       -0.000052094869 Rises=F Damp=F
 DIIS: error= 6.58D-06 at cycle   2 NSaved=   2.
 NSaved= 2 IEnMin= 2 EnMin= -1507.89579216869     IErMin= 2 ErrMin= 6.58D-06
 ErrMax= 6.58D-06  0.00D+00 EMaxC= 1.00D-01 BMatC= 7.70D-08 BMatP= 8.22D-05
 IDIUse=1 WtCom= 1.00D+00 WtEn= 0.00D+00
 Coeff-Com: -0.160D-01 0.102D+01
 Coeff:     -0.160D-01 0.102D+01
 Gap=     0.225 Goal=   None    Shift=    0.000
 RMSDP=1.43D-05 MaxDP=1.29D-03 DE=-5.21D-05 OVMax= 8.09D-05

 Cycle  13  Pass 1  IDiag  1:
 RMSU=  4.81D-06    CP:  9.96D-01  1.03D+00
 E= -1507.89579221860     Delta-E=       -0.000000049907 Rises=F Damp=F
 DIIS: error= 3.62D-06 at cycle   3 NSaved=   3.
 NSaved= 3 IEnMin= 3 EnMin= -1507.89579221860     IErMin= 3 ErrMin= 3.62D-06
 ErrMax= 3.62D-06  0.00D+00 EMaxC= 1.00D-01 BMatC= 5.93D-08 BMatP= 7.70D-08
 IDIUse=1 WtCom= 1.00D+00 WtEn= 0.00D+00
 Coeff-Com: -0.873D-02 0.515D+00 0.493D+00
 Coeff:     -0.873D-02 0.515D+00 0.493D+00
 Gap=     0.225 Goal=   None    Shift=    0.000
 RMSDP=4.06D-07 MaxDP=4.67D-05 DE=-4.99D-08 OVMax= 4.85D-05

 Cycle  14  Pass 1  IDiag  1:
 RMSU=  3.32D-07    CP:  9.96D-01  1.03D+00  1.02D+00
 E= -1507.89579226216     Delta-E=       -0.000000043565 Rises=F Damp=F
 DIIS: error= 8.97D-07 at cycle   4 NSaved=   4.
 NSaved= 4 IEnMin= 4 EnMin= -1507.89579226216     IErMin= 4 ErrMin= 8.97D-07
 ErrMax= 8.97D-07  0.00D+00 EMaxC= 1.00D-01 BMatC= 3.28D-09 BMatP= 5.93D-08
 IDIUse=1 WtCom= 1.00D+00 WtEn= 0.00D+00
 Coeff-Com: -0.883D-03 0.425D-01 0.186D+00 0.773D+00
 Coeff:     -0.883D-03 0.425D-01 0.186D+00 0.773D+00
 Gap=     0.225 Goal=   None    Shift=    0.000
 RMSDP=2.74D-07 MaxDP=1.84D-05 DE=-4.36D-08 OVMax= 1.91D-05

 Cycle  15  Pass 1  IDiag  1:
 RMSU=  1.29D-07    CP:  9.96D-01  1.03D+00  1.06D+00  9.69D-01
 E= -1507.89579226444     Delta-E=       -0.000000002271 Rises=F Damp=F
 DIIS: error= 5.57D-07 at cycle   5 NSaved=   5.
 NSaved= 5 IEnMin= 5 EnMin= -1507.89579226444     IErMin= 5 ErrMin= 5.57D-07
 ErrMax= 5.57D-07  0.00D+00 EMaxC= 1.00D-01 BMatC= 1.00D-09 BMatP= 3.28D-09
 IDIUse=1 WtCom= 1.00D+00 WtEn= 0.00D+00
 Coeff-Com:  0.402D-03-0.293D-01 0.527D-01 0.449D+00 0.527D+00
 Coeff:      0.402D-03-0.293D-01 0.527D-01 0.449D+00 0.527D+00
 Gap=     0.225 Goal=   None    Shift=    0.000
 RMSDP=6.99D-08 MaxDP=3.40D-06 DE=-2.27D-09 OVMax= 6.03D-06

 Cycle  16  Pass 1  IDiag  1:
 RMSU=  4.67D-08    CP:  9.96D-01  1.03D+00  1.06D+00  1.01D+00  1.02D+00
 E= -1507.89579226534     Delta-E=       -0.000000000906 Rises=F Damp=F
 DIIS: error= 8.79D-08 at cycle   6 NSaved=   6.
 NSaved= 6 IEnMin= 6 EnMin= -1507.89579226534     IErMin= 6 ErrMin= 8.79D-08
 ErrMax= 8.79D-08  0.00D+00 EMaxC= 1.00D-01 BMatC= 2.88D-11 BMatP= 1.00D-09
 IDIUse=1 WtCom= 1.00D+00 WtEn= 0.00D+00
 Coeff-Com:  0.197D-03-0.127D-01-0.984D-03 0.805D-01 0.151D+00 0.782D+00
 Coeff:      0.197D-03-0.127D-01-0.984D-03 0.805D-01 0.151D+00 0.782D+00
 Gap=     0.225 Goal=   None    Shift=    0.000
 RMSDP=1.88D-08 MaxDP=2.84D-06 DE=-9.06D-10 OVMax= 2.43D-06

 Cycle  17  Pass 1  IDiag  1:
 RMSU=  1.31D-08    CP:  9.96D-01  1.03D+00  1.06D+00  1.03D+00  1.10D+00
                    CP:  1.10D+00
 E= -1507.89579226542     Delta-E=       -0.000000000078 Rises=F Damp=F
 DIIS: error= 5.38D-08 at cycle   7 NSaved=   7.
 NSaved= 7 IEnMin= 7 EnMin= -1507.89579226542     IErMin= 7 ErrMin= 5.38D-08
 ErrMax= 5.38D-08  0.00D+00 EMaxC= 1.00D-01 BMatC= 8.80D-12 BMatP= 2.88D-11
 IDIUse=1 WtCom= 1.00D+00 WtEn= 0.00D+00
 Coeff-Com: -0.132D-04 0.172D-02-0.139D-01-0.697D-01-0.675D-01 0.351D+00
 Coeff-Com:  0.798D+00
 Coeff:     -0.132D-04 0.172D-02-0.139D-01-0.697D-01-0.675D-01 0.351D+00
 Coeff:      0.798D+00
 Gap=     0.225 Goal=   None    Shift=    0.000
 RMSDP=9.35D-09 MaxDP=1.38D-06 DE=-7.82D-11 OVMax= 1.64D-06

 Cycle  18  Pass 1  IDiag  1:
 RMSU=  6.34D-09    CP:  9.96D-01  1.03D+00  1.06D+00  1.03D+00  1.13D+00
                    CP:  1.20D+00  1.10D+00
 E= -1507.89579226539     Delta-E=        0.000000000035 Rises=F Damp=F
 DIIS: error= 1.97D-08 at cycle   8 NSaved=   8.
 NSaved= 8 IEnMin= 7 EnMin= -1507.89579226542     IErMin= 8 ErrMin= 1.97D-08
 ErrMax= 1.97D-08  0.00D+00 EMaxC= 1.00D-01 BMatC= 7.80D-13 BMatP= 8.80D-12
 IDIUse=1 WtCom= 1.00D+00 WtEn= 0.00D+00
 Coeff-Com: -0.246D-04 0.190D-02-0.513D-02-0.329D-01-0.427D-01 0.454D-01
 Coeff-Com:  0.292D+00 0.741D+00
 Coeff:     -0.246D-04 0.190D-02-0.513D-02-0.329D-01-0.427D-01 0.454D-01
 Coeff:      0.292D+00 0.741D+00
 Gap=     0.225 Goal=   None    Shift=    0.000
 RMSDP=3.04D-09 MaxDP=5.15D-07 DE= 3.46D-11 OVMax= 4.42D-07

 SCF Done:  E(RM062X) =  -1507.89579227     A.U. after   18 cycles
            NFock= 18  Conv=0.30D-08     -V/T= 2.0038
 KE= 1.502170627845D+03 PE=-8.383581454049D+03 EE= 2.951254574454D+03
 Leave Link  502 at Sun Apr  9 10:13:06 2023, MaxMem=  2684354560 cpu:           17852.0 elap:            1115.9
 (Enter /opt/gaussian/g16/l601.exe)
 Copying SCF densities to generalized density rwf, IOpCl= 0 IROHF=0.

 **********************************************************************

            Population analysis using the SCF density.

 **********************************************************************

 Alpha  occ. eigenvalues --  -89.90864 -19.64101 -19.63527 -19.62293 -19.61647
 Alpha  occ. eigenvalues --  -19.59955 -14.79214 -14.76343 -10.64681 -10.64556
 Alpha  occ. eigenvalues --  -10.63174 -10.60097 -10.60064 -10.59829 -10.58388
 Alpha  occ. eigenvalues --  -10.56916 -10.55684 -10.55269 -10.54268 -10.53841
 Alpha  occ. eigenvalues --  -10.53829 -10.53726 -10.52967 -10.52888  -8.26866
 Alpha  occ. eigenvalues --   -6.18800  -6.18570  -6.18389  -1.18977  -1.16813
 Alpha  occ. eigenvalues --   -1.16368  -1.16080  -1.14274  -1.07793  -1.00195
 Alpha  occ. eigenvalues --   -0.92330  -0.91556  -0.89208  -0.88277  -0.87400
 Alpha  occ. eigenvalues --   -0.85766  -0.81688  -0.78566  -0.75370  -0.74698
 Alpha  occ. eigenvalues --   -0.72861  -0.70028  -0.68049  -0.66475  -0.65412
 Alpha  occ. eigenvalues --   -0.63597  -0.62168  -0.61229  -0.59241  -0.59050
 Alpha  occ. eigenvalues --   -0.57553  -0.56323  -0.55548  -0.55203  -0.54043
 Alpha  occ. eigenvalues --   -0.53337  -0.52928  -0.52197  -0.51158  -0.50935
 Alpha  occ. eigenvalues --   -0.50503  -0.50069  -0.49132  -0.48825  -0.48501
 Alpha  occ. eigenvalues --   -0.48380  -0.47766  -0.46932  -0.46426  -0.46225
 Alpha  occ. eigenvalues --   -0.45640  -0.44931  -0.44131  -0.43702  -0.42916
 Alpha  occ. eigenvalues --   -0.42735  -0.42128  -0.41458  -0.39948  -0.38536
 Alpha  occ. eigenvalues --   -0.36291  -0.36146  -0.35225  -0.34371  -0.33476
 Alpha  occ. eigenvalues --   -0.32878  -0.32483  -0.31650  -0.29929  -0.24749
 Alpha virt. eigenvalues --   -0.02209   0.00760   0.04866   0.05423   0.05908
 Alpha virt. eigenvalues --    0.06586   0.06681   0.08211   0.08361   0.08920
 Alpha virt. eigenvalues --    0.09294   0.09612   0.10243   0.10995   0.11252
 Alpha virt. eigenvalues --    0.12064   0.12445   0.12587   0.12993   0.13673
 Alpha virt. eigenvalues --    0.13759   0.14101   0.14191   0.14780   0.15133
 Alpha virt. eigenvalues --    0.15702   0.16189   0.16758   0.17409   0.18100
 Alpha virt. eigenvalues --    0.18345   0.19072   0.19290   0.19480   0.19875
 Alpha virt. eigenvalues --    0.20689   0.21065   0.21671   0.21736   0.22303
 Alpha virt. eigenvalues --    0.22856   0.23298   0.23701   0.24172   0.24837
 Alpha virt. eigenvalues --    0.24896   0.25512   0.26102   0.26631   0.26689
 Alpha virt. eigenvalues --    0.26925   0.27752   0.27803   0.28444   0.28813
 Alpha virt. eigenvalues --    0.29075   0.30038   0.30242   0.30854   0.31482
 Alpha virt. eigenvalues --    0.31762   0.31879   0.32566   0.32891   0.33093
 Alpha virt. eigenvalues --    0.33496   0.34514   0.34551   0.35405   0.35527
 Alpha virt. eigenvalues --    0.36638   0.36864   0.37416   0.37707   0.38010
 Alpha virt. eigenvalues --    0.38749   0.39248   0.39585   0.40127   0.40347
 Alpha virt. eigenvalues --    0.40484   0.41048   0.41471   0.41796   0.42204
 Alpha virt. eigenvalues --    0.42356   0.42565   0.43285   0.43682   0.43771
 Alpha virt. eigenvalues --    0.43909   0.44629   0.45102   0.45318   0.45626
 Alpha virt. eigenvalues --    0.46135   0.46334   0.46662   0.47087   0.47627
 Alpha virt. eigenvalues --    0.47993   0.48615   0.48923   0.49063   0.49455
 Alpha virt. eigenvalues --    0.49790   0.50086   0.50313   0.50553   0.51020
 Alpha virt. eigenvalues --    0.51307   0.51408   0.51652   0.52201   0.52769
 Alpha virt. eigenvalues --    0.53239   0.53297   0.53697   0.54228   0.54318
 Alpha virt. eigenvalues --    0.54764   0.55264   0.56091   0.56350   0.57168
 Alpha virt. eigenvalues --    0.57516   0.58131   0.58564   0.58976   0.59142
 Alpha virt. eigenvalues --    0.60065   0.60340   0.60809   0.61409   0.61617
 Alpha virt. eigenvalues --    0.62118   0.62740   0.63072   0.64403   0.64544
 Alpha virt. eigenvalues --    0.64733   0.65558   0.66673   0.67115   0.67834
 Alpha virt. eigenvalues --    0.68094   0.68601   0.69129   0.69833   0.70795
 Alpha virt. eigenvalues --    0.71186   0.72264   0.72700   0.73367   0.73936
 Alpha virt. eigenvalues --    0.74326   0.74865   0.75813   0.76762   0.77742
 Alpha virt. eigenvalues --    0.78023   0.78503   0.79055   0.80119   0.80676
 Alpha virt. eigenvalues --    0.81637   0.81932   0.82558   0.82903   0.83745
 Alpha virt. eigenvalues --    0.84536   0.85333   0.85747   0.86126   0.86897
 Alpha virt. eigenvalues --    0.87681   0.87862   0.88355   0.88926   0.89487
 Alpha virt. eigenvalues --    0.90843   0.91451   0.91945   0.92191   0.93656
 Alpha virt. eigenvalues --    0.93969   0.94300   0.95580   0.95742   0.96254
 Alpha virt. eigenvalues --    0.97291   0.97686   0.98134   0.98515   0.99002
 Alpha virt. eigenvalues --    0.99462   1.00298   1.02649   1.02928   1.03768
 Alpha virt. eigenvalues --    1.04011   1.05029   1.05317   1.05414   1.06197
 Alpha virt. eigenvalues --    1.06720   1.07675   1.08376   1.09271   1.09694
 Alpha virt. eigenvalues --    1.09857   1.10918   1.11564   1.12174   1.12421
 Alpha virt. eigenvalues --    1.12850   1.14090   1.15056   1.15475   1.16064
 Alpha virt. eigenvalues --    1.16312   1.16843   1.18024   1.18284   1.19339
 Alpha virt. eigenvalues --    1.20965   1.21549   1.21896   1.22489   1.23062
 Alpha virt. eigenvalues --    1.23546   1.25570   1.25628   1.27251   1.27428
 Alpha virt. eigenvalues --    1.28406   1.28739   1.29947   1.31153   1.31690
 Alpha virt. eigenvalues --    1.32831   1.33724   1.34429   1.34494   1.35063
 Alpha virt. eigenvalues --    1.36359   1.37490   1.38621   1.39884   1.40150
 Alpha virt. eigenvalues --    1.40724   1.41570   1.41771   1.42035   1.43232
 Alpha virt. eigenvalues --    1.44324   1.45690   1.46759   1.48692   1.49299
 Alpha virt. eigenvalues --    1.50084   1.51506   1.52054   1.52549   1.52835
 Alpha virt. eigenvalues --    1.53680   1.54248   1.54697   1.55210   1.56084
 Alpha virt. eigenvalues --    1.56497   1.56627   1.56961   1.57238   1.57691
 Alpha virt. eigenvalues --    1.58062   1.58583   1.59480   1.59789   1.60005
 Alpha virt. eigenvalues --    1.60668   1.60900   1.61311   1.61536   1.62118
 Alpha virt. eigenvalues --    1.62528   1.63394   1.63583   1.63854   1.64879
 Alpha virt. eigenvalues --    1.65943   1.66107   1.66936   1.67639   1.68212
 Alpha virt. eigenvalues --    1.68831   1.69633   1.70180   1.70340   1.70498
 Alpha virt. eigenvalues --    1.71620   1.72491   1.73422   1.73850   1.74048
 Alpha virt. eigenvalues --    1.74628   1.75432   1.76642   1.77463   1.78058
 Alpha virt. eigenvalues --    1.78320   1.78760   1.79195   1.80172   1.81305
 Alpha virt. eigenvalues --    1.81861   1.82868   1.83282   1.83601   1.84111
 Alpha virt. eigenvalues --    1.85202   1.85780   1.86052   1.87265   1.87426
 Alpha virt. eigenvalues --    1.88088   1.88754   1.89567   1.89875   1.90360
 Alpha virt. eigenvalues --    1.91644   1.93037   1.93264   1.93846   1.94587
 Alpha virt. eigenvalues --    1.94632   1.95884   1.96507   1.96972   1.98016
 Alpha virt. eigenvalues --    1.98887   1.99576   1.99704   2.00453   2.01249
 Alpha virt. eigenvalues --    2.01578   2.02581   2.03360   2.04417   2.04980
 Alpha virt. eigenvalues --    2.05683   2.06429   2.07362   2.08284   2.08695
 Alpha virt. eigenvalues --    2.09469   2.09918   2.10545   2.10851   2.11858
 Alpha virt. eigenvalues --    2.11935   2.12509   2.13666   2.14141   2.15367
 Alpha virt. eigenvalues --    2.15933   2.16724   2.16886   2.18708   2.18780
 Alpha virt. eigenvalues --    2.19605   2.20601   2.20810   2.21695   2.22600
 Alpha virt. eigenvalues --    2.23364   2.23927   2.25116   2.26146   2.26489
 Alpha virt. eigenvalues --    2.26935   2.27378   2.28370   2.29233   2.29408
 Alpha virt. eigenvalues --    2.30077   2.30560   2.31172   2.31984   2.32175
 Alpha virt. eigenvalues --    2.32518   2.33830   2.34518   2.34947   2.35408
 Alpha virt. eigenvalues --    2.36061   2.36353   2.38055   2.38701   2.39220
 Alpha virt. eigenvalues --    2.40545   2.41186   2.42154   2.42441   2.43452
 Alpha virt. eigenvalues --    2.44838   2.45624   2.46480   2.46796   2.46990
 Alpha virt. eigenvalues --    2.47901   2.48518   2.48921   2.49232   2.50160
 Alpha virt. eigenvalues --    2.51015   2.52675   2.52721   2.54621   2.54871
 Alpha virt. eigenvalues --    2.55322   2.56717   2.56867   2.57507   2.58019
 Alpha virt. eigenvalues --    2.58852   2.59166   2.59568   2.60625   2.60839
 Alpha virt. eigenvalues --    2.61543   2.61966   2.62126   2.64274   2.64435
 Alpha virt. eigenvalues --    2.64831   2.65743   2.65996   2.66532   2.67376
 Alpha virt. eigenvalues --    2.68164   2.68674   2.69681   2.69962   2.70077
 Alpha virt. eigenvalues --    2.70999   2.71373   2.71954   2.72739   2.73760
 Alpha virt. eigenvalues --    2.73947   2.74453   2.75891   2.76610   2.77511
 Alpha virt. eigenvalues --    2.78209   2.78606   2.79294   2.80126   2.81067
 Alpha virt. eigenvalues --    2.81919   2.82569   2.83047   2.83668   2.84844
 Alpha virt. eigenvalues --    2.85305   2.86559   2.87342   2.88054   2.88190
 Alpha virt. eigenvalues --    2.89045   2.89862   2.91029   2.92091   2.93254
 Alpha virt. eigenvalues --    2.93857   2.94182   2.94717   2.95518   2.96378
 Alpha virt. eigenvalues --    2.97101   2.97854   2.98235   2.99298   3.00371
 Alpha virt. eigenvalues --    3.00745   3.01380   3.01743   3.02515   3.03405
 Alpha virt. eigenvalues --    3.03811   3.04939   3.05293   3.06053   3.06887
 Alpha virt. eigenvalues --    3.07512   3.08126   3.08936   3.09337   3.09932
 Alpha virt. eigenvalues --    3.10235   3.10561   3.11896   3.12552   3.13049
 Alpha virt. eigenvalues --    3.13095   3.13438   3.15118   3.15178   3.16044
 Alpha virt. eigenvalues --    3.16317   3.17140   3.17941   3.18377   3.18608
 Alpha virt. eigenvalues --    3.19569   3.20631   3.20873   3.21401   3.22478
 Alpha virt. eigenvalues --    3.23225   3.23287   3.24017   3.24315   3.25195
 Alpha virt. eigenvalues --    3.25505   3.26162   3.26839   3.27049   3.27439
 Alpha virt. eigenvalues --    3.27995   3.28655   3.29780   3.30396   3.31025
 Alpha virt. eigenvalues --    3.31632   3.31968   3.32543   3.33171   3.33757
 Alpha virt. eigenvalues --    3.34381   3.34823   3.35376   3.35957   3.36402
 Alpha virt. eigenvalues --    3.37183   3.37563   3.38783   3.39082   3.39491
 Alpha virt. eigenvalues --    3.39942   3.40650   3.41239   3.41615   3.42275
 Alpha virt. eigenvalues --    3.42532   3.43669   3.44639   3.45040   3.45923
 Alpha virt. eigenvalues --    3.46510   3.46872   3.47687   3.48231   3.48807
 Alpha virt. eigenvalues --    3.49421   3.50036   3.50268   3.50667   3.52382
 Alpha virt. eigenvalues --    3.53912   3.54801   3.55375   3.55687   3.56544
 Alpha virt. eigenvalues --    3.57085   3.58077   3.58366   3.58917   3.59494
 Alpha virt. eigenvalues --    3.60301   3.61797   3.63497   3.64324   3.64815
 Alpha virt. eigenvalues --    3.65152   3.66404   3.67792   3.68506   3.68926
 Alpha virt. eigenvalues --    3.70448   3.71481   3.72008   3.72727   3.74229
 Alpha virt. eigenvalues --    3.75691   3.76112   3.76436   3.77230   3.77718
 Alpha virt. eigenvalues --    3.78662   3.79669   3.80137   3.82169   3.82660
 Alpha virt. eigenvalues --    3.82900   3.85130   3.86018   3.88598   3.89257
 Alpha virt. eigenvalues --    3.89964   3.90561   3.91078   3.92893   3.93492
 Alpha virt. eigenvalues --    3.94045   3.95571   3.97322   3.99051   3.99853
 Alpha virt. eigenvalues --    4.01156   4.02353   4.02818   4.05323   4.06206
 Alpha virt. eigenvalues --    4.07323   4.07839   4.09016   4.10092   4.11173
 Alpha virt. eigenvalues --    4.11920   4.13428   4.14187   4.14447   4.16454
 Alpha virt. eigenvalues --    4.20207   4.21259   4.21888   4.22378   4.23340
 Alpha virt. eigenvalues --    4.25118   4.26109   4.28032   4.28613   4.29332
 Alpha virt. eigenvalues --    4.30685   4.32941   4.33052   4.37826   4.38892
 Alpha virt. eigenvalues --    4.41228   4.41581   4.42006   4.42365   4.45018
 Alpha virt. eigenvalues --    4.45468   4.46705   4.47726   4.50238   4.50589
 Alpha virt. eigenvalues --    4.51959   4.52607   4.53325   4.54383   4.54909
 Alpha virt. eigenvalues --    4.57459   4.63844   4.66630   4.68427   4.69098
 Alpha virt. eigenvalues --    4.71028   4.71969   4.73067   4.74078   4.74961
 Alpha virt. eigenvalues --    4.76086   4.77486   4.79106   4.81182   4.82139
 Alpha virt. eigenvalues --    4.83970   4.84676   4.86740   4.90085   4.91448
 Alpha virt. eigenvalues --    4.92064   4.92793   4.94507   4.95522   4.98145
 Alpha virt. eigenvalues --    4.98320   4.99648   5.01773   5.02429   5.04692
 Alpha virt. eigenvalues --    5.07766   5.09979   5.12205   5.17445   5.20189
 Alpha virt. eigenvalues --    5.22015   5.22673   5.23625   5.24231   5.27188
 Alpha virt. eigenvalues --    5.29211   5.30418   5.31340   5.32222   5.36480
 Alpha virt. eigenvalues --    5.39996   5.42845   5.45248   5.45935   5.46829
 Alpha virt. eigenvalues --    5.49998   5.50987   5.52326   5.55916   5.56723
 Alpha virt. eigenvalues --    5.62565   5.63035   5.72592   5.75202   5.75945
 Alpha virt. eigenvalues --    5.78105   5.78741   5.81796   5.82366   5.84223
 Alpha virt. eigenvalues --    5.85509   5.86013   5.88439   5.91577   5.93589
 Alpha virt. eigenvalues --    5.95774   5.97999   6.06481   6.18892   6.20043
 Alpha virt. eigenvalues --    6.23319   6.26582   6.27764   6.31584   6.36521
 Alpha virt. eigenvalues --    6.39458   6.43808   6.45156   6.51229   6.51616
 Alpha virt. eigenvalues --    6.54381   6.57792   6.69878   6.71253   6.73458
 Alpha virt. eigenvalues --    6.76395   6.79996   6.84086   6.85039   6.85723
 Alpha virt. eigenvalues --    6.86439   6.90803   6.99592   7.00513   7.06777
 Alpha virt. eigenvalues --    7.07809   7.09107   7.09620   7.17022   7.24875
 Alpha virt. eigenvalues --    7.24932   7.32061   8.99428   9.40677   9.53569
 Alpha virt. eigenvalues --   20.07147  22.31418  22.45319  22.50418  22.55835
 Alpha virt. eigenvalues --   22.61550  22.63414  22.69184  22.71596  22.79789
 Alpha virt. eigenvalues --   22.83391  22.94730  22.97580  23.06720  23.12216
 Alpha virt. eigenvalues --   23.21102  23.34111  32.11113  33.14303  44.12963
 Alpha virt. eigenvalues --   44.16398  44.21589  44.25403  44.50580
          Condensed to atoms (all electrons):
               1          2          3          4          5          6
     1  C    5.112533   0.423989   0.416506  -0.007796  -0.000120  -0.000359
     2  H    0.423989   0.509787  -0.022976  -0.001116   0.000238  -0.000003
     3  H    0.416506  -0.022976   0.541926   0.001832  -0.000003  -0.000007
     4  C   -0.007796  -0.001116   0.001832   5.346421   0.480406   0.257815
     5  H   -0.000120   0.000238  -0.000003   0.480406   0.535570  -0.031377
     6  O   -0.000359  -0.000003  -0.000007   0.257815  -0.031377   8.039356
     7  H   -0.000056  -0.000004   0.000005  -0.035648  -0.013373   0.287020
     8  C    0.008724   0.013149  -0.009881  -0.001181  -0.057648  -0.049081
     9  H    0.009578   0.000118  -0.002116  -0.102940   0.001799   0.003729
    10  O    0.007134  -0.000373   0.000259  -0.036312   0.001504  -0.008224
    11  H   -0.001288  -0.000132   0.000475   0.014930  -0.000762  -0.000460
    12  C   -0.002891  -0.000140   0.000600   0.083876  -0.081911  -0.028926
    13  H   -0.000287   0.000021   0.000124  -0.092279   0.006644   0.009012
    14  C    0.174080  -0.050314  -0.042156   0.105800   0.012140   0.006732
    15  H   -0.074152  -0.006961  -0.002825  -0.008158   0.000035   0.000094
    16  O   -0.032902   0.001002   0.005284  -0.068713   0.001153   0.005333
    17  N    0.000141  -0.000054  -0.000034   0.009405  -0.012307  -0.002607
    18  C   -0.000439   0.000043  -0.000006  -0.008902   0.001028   0.002035
    19  H   -0.000285  -0.000080   0.000057  -0.014207  -0.001910   0.000875
    20  C    0.000012  -0.000000  -0.000002   0.006970   0.004156  -0.000898
    21  H    0.000004   0.000000  -0.000000   0.000077   0.000058  -0.000010
    22  C   -0.000008  -0.000000   0.000000  -0.000281  -0.000167  -0.000019
    23  H   -0.000000   0.000000  -0.000000   0.000013   0.000003  -0.000000
    24  H   -0.000000  -0.000000   0.000000  -0.000108  -0.000081  -0.000001
    25  C   -0.000063  -0.000003   0.000001  -0.004630  -0.000202  -0.000232
    26  C   -0.000224   0.000032  -0.000005   0.013558  -0.000867  -0.005433
    27  H   -0.000013   0.000001  -0.000000   0.000633  -0.000102  -0.000097
    28  C    0.000000  -0.000000  -0.000000   0.000033   0.000004  -0.000011
    29  O   -0.000000   0.000000  -0.000000   0.000006   0.000000  -0.000000
    30  N   -0.000000   0.000000   0.000000   0.000000   0.000000  -0.000000
    31  H   -0.000000   0.000000   0.000000   0.000000   0.000000  -0.000000
    32  H    0.000000   0.000000  -0.000000   0.000000   0.000000   0.000000
    33  C    0.000001  -0.000000   0.000000  -0.000153  -0.000360  -0.015390
    34  C    0.000001  -0.000000  -0.000000   0.000249   0.000254   0.007976
    35  C    0.000000   0.000000  -0.000000  -0.000327   0.000078   0.000575
    36  C   -0.000000   0.000000   0.000000   0.000001   0.000001   0.000002
    37  C   -0.000000   0.000000   0.000000   0.000094   0.000002  -0.000041
    38  O   -0.000000   0.000000  -0.000000   0.000830   0.000040  -0.016311
    39  S   -0.000000  -0.000000  -0.000000   0.000317   0.000012   0.000511
    40  H   -0.000000   0.000000  -0.000000   0.000150   0.000026   0.000078
    41  H   -0.000003   0.000000  -0.000000  -0.000522   0.000498   0.012130
    42  H    0.000000   0.000000  -0.000000   0.000000   0.000000  -0.000000
    43  H    0.000000  -0.000000  -0.000000  -0.000000  -0.000000  -0.000000
    44  H   -0.000000  -0.000000  -0.000000   0.000000  -0.000000   0.000000
    45  H   -0.000000   0.000000   0.000000   0.000009   0.000001   0.000006
    46  H   -0.000000  -0.000000   0.000000   0.000002   0.000000   0.000020
    47  H    0.378955  -0.021946  -0.026245   0.000897  -0.000254   0.000024
    48  H    0.000000   0.000000  -0.000000  -0.000005   0.000002   0.000343
               7          8          9         10         11         12
     1  C   -0.000056   0.008724   0.009578   0.007134  -0.001288  -0.002891
     2  H   -0.000004   0.013149   0.000118  -0.000373  -0.000132  -0.000140
     3  H    0.000005  -0.009881  -0.002116   0.000259   0.000475   0.000600
     4  C   -0.035648  -0.001181  -0.102940  -0.036312   0.014930   0.083876
     5  H   -0.013373  -0.057648   0.001799   0.001504  -0.000762  -0.081911
     6  O    0.287020  -0.049081   0.003729  -0.008224  -0.000460  -0.028926
     7  H    0.385636   0.011963  -0.000481  -0.000563   0.000197   0.001508
     8  C    0.011963   5.424462   0.514989   0.292896  -0.047963  -0.035907
     9  H   -0.000481   0.514989   0.584738  -0.055120  -0.007073   0.012793
    10  O   -0.000563   0.292896  -0.055120   7.997696   0.295352  -0.028033
    11  H    0.000197  -0.047963  -0.007073   0.295352   0.432464  -0.001249
    12  C    0.001508  -0.035907   0.012793  -0.028033  -0.001249   5.445736
    13  H   -0.001406   0.017400   0.002654   0.015320  -0.001140   0.442480
    14  C   -0.001023   0.052631  -0.125032  -0.057643   0.002360  -0.088876
    15  H    0.000073  -0.041471   0.011023  -0.001437   0.003489  -0.001405
    16  O    0.000154  -0.031670   0.005340   0.008585   0.000027   0.252910
    17  N    0.005176   0.000685  -0.000792  -0.000103   0.000022   0.212748
    18  C    0.001082  -0.003163  -0.000219  -0.000216   0.000009  -0.074998
    19  H    0.000380   0.001367   0.000017  -0.000004   0.000004   0.016881
    20  C   -0.001452  -0.000875   0.000022   0.000005  -0.000001   0.009275
    21  H   -0.000016   0.000001   0.000000   0.000000  -0.000000   0.000080
    22  C    0.000306   0.000010  -0.000003  -0.000002   0.000000  -0.009403
    23  H   -0.000004  -0.000000   0.000000   0.000000  -0.000000   0.000041
    24  H    0.000182   0.000015  -0.000000   0.000000   0.000000   0.000708
    25  C    0.000521  -0.000551  -0.000002  -0.000034  -0.000001  -0.017181
    26  C   -0.000472  -0.004090  -0.000084  -0.000522  -0.000036  -0.057733
    27  H    0.000071  -0.000052  -0.000008  -0.000118   0.000005  -0.002932
    28  C    0.000025   0.000003   0.000000   0.000000  -0.000000  -0.000487
    29  O    0.000004   0.000000   0.000000  -0.000000  -0.000000   0.000370
    30  N    0.000000  -0.000000  -0.000000  -0.000000  -0.000000   0.000005
    31  H   -0.000000  -0.000000   0.000000  -0.000000  -0.000000  -0.000005
    32  H   -0.000000  -0.000000  -0.000000   0.000000  -0.000000  -0.000010
    33  C    0.004425   0.000546   0.000013  -0.000704   0.000046   0.000023
    34  C   -0.005081  -0.000013  -0.000016   0.000010   0.000001   0.000111
    35  C    0.001030  -0.000052  -0.000000   0.000000  -0.000000   0.000650
    36  C   -0.000007  -0.000000  -0.000000  -0.000000  -0.000000   0.000011
    37  C   -0.000317  -0.000001   0.000000  -0.000000  -0.000000  -0.000569
    38  O    0.024130  -0.000167   0.000002  -0.000000  -0.000000  -0.000294
    39  S   -0.001536  -0.000033   0.000001   0.000003  -0.000001  -0.000414
    40  H   -0.001235  -0.000021   0.000000   0.000013  -0.000001   0.000001
    41  H   -0.009243  -0.000940   0.000002   0.002171  -0.000148  -0.000005
    42  H    0.000000   0.000000  -0.000000   0.000000  -0.000000   0.000002
    43  H    0.000000   0.000000  -0.000000   0.000000   0.000000   0.000000
    44  H   -0.000000   0.000000  -0.000000   0.000000   0.000000  -0.000000
    45  H   -0.000023   0.000000   0.000000  -0.000000  -0.000000  -0.000042
    46  H   -0.000082   0.000000  -0.000000  -0.000000   0.000000   0.000061
    47  H    0.000022  -0.013199   0.000759   0.000195   0.000151  -0.001091
    48  H    0.000215  -0.000016   0.000001   0.000005  -0.000002   0.000006
              13         14         15         16         17         18
     1  C   -0.000287   0.174080  -0.074152  -0.032902   0.000141  -0.000439
     2  H    0.000021  -0.050314  -0.006961   0.001002  -0.000054   0.000043
     3  H    0.000124  -0.042156  -0.002825   0.005284  -0.000034  -0.000006
     4  C   -0.092279   0.105800  -0.008158  -0.068713   0.009405  -0.008902
     5  H    0.006644   0.012140   0.000035   0.001153  -0.012307   0.001028
     6  O    0.009012   0.006732   0.000094   0.005333  -0.002607   0.002035
     7  H   -0.001406  -0.001023   0.000073   0.000154   0.005176   0.001082
     8  C    0.017400   0.052631  -0.041471  -0.031670   0.000685  -0.003163
     9  H    0.002654  -0.125032   0.011023   0.005340  -0.000792  -0.000219
    10  O    0.015320  -0.057643  -0.001437   0.008585  -0.000103  -0.000216
    11  H   -0.001140   0.002360   0.003489   0.000027   0.000022   0.000009
    12  C    0.442480  -0.088876  -0.001405   0.252910   0.212748  -0.074998
    13  H    0.522023  -0.011887   0.006382  -0.033183  -0.057561   0.013519
    14  C   -0.011887   5.375082   0.416613   0.200316   0.013455  -0.000778
    15  H    0.006382   0.416613   0.614807  -0.036404  -0.001229   0.000193
    16  O   -0.033183   0.200316  -0.036404   8.070705  -0.072921   0.009248
    17  N   -0.057561   0.013455  -0.001229  -0.072921   6.535781   0.306716
    18  C    0.013519  -0.000778   0.000193   0.009248   0.306716   5.038958
    19  H    0.001162  -0.002963   0.000178   0.011195  -0.048185   0.407540
    20  C   -0.000560   0.000500   0.000000  -0.000914  -0.087286   0.542710
    21  H    0.000004  -0.000003  -0.000000  -0.000069   0.004454  -0.030148
    22  C    0.000195  -0.000046   0.000001   0.000503  -0.001056  -0.024393
    23  H   -0.000004  -0.000000   0.000000  -0.000004  -0.001255   0.004450
    24  H   -0.000030   0.000003   0.000000   0.000033   0.011208   0.007031
    25  C    0.008474   0.000156   0.000021  -0.001721  -0.084390   0.050695
    26  C   -0.018343   0.000189  -0.000457   0.001357   0.345262  -0.175768
    27  H   -0.001015   0.000011  -0.000026   0.000854  -0.034968   0.007354
    28  C    0.000019  -0.000007  -0.000000   0.000016   0.003920   0.003041
    29  O   -0.000050  -0.000000   0.000000  -0.000001  -0.000381   0.000309
    30  N   -0.000000   0.000000  -0.000000  -0.000000  -0.000413  -0.000197
    31  H    0.000000  -0.000000  -0.000000   0.000000   0.000020  -0.000007
    32  H    0.000001   0.000000  -0.000000   0.000000   0.000037   0.000309
    33  C   -0.000401  -0.000070   0.000000  -0.000000   0.000084   0.000001
    34  C    0.000358   0.000053  -0.000000   0.000056   0.005437  -0.001563
    35  C   -0.000094   0.000002  -0.000000  -0.000007  -0.003325   0.001947
    36  C    0.000002   0.000000  -0.000000  -0.000000  -0.000238   0.000438
    37  C    0.000013  -0.000001  -0.000000  -0.000002  -0.001504   0.000510
    38  O   -0.000267   0.000007  -0.000000  -0.000000  -0.000674   0.002395
    39  S    0.000943   0.000004   0.000000   0.000000  -0.000053   0.000055
[...]
      5        1           0.004605769    0.004969256   -0.000418767
      6        8           0.001133202   -0.004513221   -0.010200851
      7        1          -0.005592211    0.002144303    0.001783296
      8        6          -0.011429960   -0.007142619   -0.003834024
      9        1           0.001242378    0.005460939   -0.002982369
     10        8           0.006962448   -0.000654613   -0.000935620
     11        1          -0.001334413    0.001717922    0.000439962
     12        6          -0.008996650    0.005628126    0.003732309
     13        1          -0.003117565   -0.002078363   -0.002319522
     14        6           0.000869661    0.000908565    0.006750420
     15        1          -0.002788193    0.002148386    0.001464161
     16        8          -0.002018794   -0.001372709    0.006960085
     17        7           0.020566634    0.006753189    0.000267834
     18        6           0.004512816   -0.005928361    0.003962459
     19        1           0.003565474    0.000284900    0.000824643
     20        6          -0.007376819    0.000162639   -0.003186160
     21        1          -0.000477500   -0.004494256    0.000717897
     22        6          -0.011986317    0.009668445    0.015030985
     23        1          -0.001168707    0.001216946   -0.000646177
     24        1           0.009577930   -0.018519810   -0.024987450
     25        6          -0.014286061    0.003467729   -0.006802657
     26        6           0.006875333   -0.008527725    0.006558569
     27        1           0.002957897    0.000528874    0.001255754
     28        6          -0.013485375   -0.007070877    0.001744790
     29        8           0.002563098    0.006649689   -0.004911365
     30        7           0.025655174   -0.000063040   -0.006187110
     31        1          -0.002713311   -0.005917350    0.007884734
     32        1          -0.003161030    0.005441989    0.007147482
     33        6          -0.001806982   -0.009951596   -0.000274109
     34        6          -0.007499472   -0.029330534    0.007276886
     35        6           0.007638855    0.001926010   -0.003564816
     36        6          -0.001462440    0.002114529   -0.003700366
     37        6          -0.011060837    0.006084894    0.016362965
     38        8           0.000185037    0.013882271   -0.009029578
     39       16           0.014821299    0.015250397    0.009373812
     40        1           0.001209311    0.000711620   -0.000040071
     41        1           0.001129945    0.000579168    0.002149092
     42        1          -0.001466165   -0.002173750   -0.002715793
     43        1           0.000099713    0.002757883   -0.001759699
     44        1          -0.001788142    0.001314104    0.000018194
     45        1           0.002679356   -0.002937374    0.000891342
     46        1           0.000055168    0.004288080   -0.001579512
     47        1           0.000576139   -0.001841566   -0.000474375
     48        1          -0.002988966    0.004886477   -0.005337809
 -------------------------------------------------------------------
 Cartesian Forces:  Max     0.029330534 RMS     0.007198621
 Leave Link  716 at Sun Apr  9 10:20:40 2023, MaxMem=  2684354560 cpu:               0.8 elap:               0.1
 (Enter /opt/gaussian/g16/l103.exe)

 GradGradGradGradGradGradGradGradGradGradGradGradGradGradGradGradGradGrad
 Berny optimization.
 Search for a local minimum.
 Step number   1 out of a maximum of    2
 All quantities printed in internal units (Hartrees-Bohrs-Radians)
 Second derivative matrix not updated -- first step.
 ITU=  0
     Eigenvalues ---    0.00054   0.00097   0.00106   0.00129   0.00167
     Eigenvalues ---    0.00293   0.00350   0.00372   0.00450   0.00495
     Eigenvalues ---    0.00592   0.00744   0.00907   0.00986   0.01025
     Eigenvalues ---    0.01061   0.01238   0.01391   0.01414   0.01512
     Eigenvalues ---    0.01726   0.01977   0.02027   0.02456   0.02530
     Eigenvalues ---    0.02971   0.03156   0.03338   0.03926   0.04078
     Eigenvalues ---    0.04299   0.04577   0.04859   0.04959   0.05134
     Eigenvalues ---    0.05269   0.05474   0.05557   0.05776   0.05880
     Eigenvalues ---    0.05993   0.06077   0.06282   0.06473   0.06829
     Eigenvalues ---    0.07079   0.07526   0.07699   0.07786   0.08269
     Eigenvalues ---    0.08631   0.08965   0.09782   0.10065   0.10374
     Eigenvalues ---    0.10808   0.11201   0.11966   0.12221   0.12708
     Eigenvalues ---    0.13038   0.13177   0.13256   0.13452   0.13866
     Eigenvalues ---    0.14286   0.14401   0.14968   0.15774   0.16417
     Eigenvalues ---    0.16695   0.17329   0.17821   0.18808   0.19521
     Eigenvalues ---    0.20259   0.21547   0.21776   0.21986   0.24445
     Eigenvalues ---    0.27208   0.27751   0.27821   0.31114   0.32595
     Eigenvalues ---    0.34939   0.35361   0.36503   0.36946   0.37596
     Eigenvalues ---    0.37596   0.37596   0.37596   0.37596   0.41902
     Eigenvalues ---    0.42888   0.44710   0.47994   0.53550   0.57034
     Eigenvalues ---    0.60647   0.66894   0.67493   0.71496   0.76613
     Eigenvalues ---    0.77256   0.83446   0.84287   0.87770   0.89759
     Eigenvalues ---    0.90408   0.92490   0.92961   0.93973   0.94972
     Eigenvalues ---    0.95743   0.96076   0.98585   1.00086   1.02565
     Eigenvalues ---    1.03203   1.05643   1.07382   1.09416   1.10379
     Eigenvalues ---    1.14792   1.17698   1.20696   1.22052   1.27755
     Eigenvalues ---    1.28722   1.33178   1.51452   1.67351   1.67975
     Eigenvalues ---    1.79889   2.08411   2.31155
 Quadratic step=4.571D+00 exceeds max=3.000D-01 adjusted using Lamda=-4.667D-02.
 Angle between NR and scaled steps=  61.39 degrees.
 Angle between quadratic step and forces=  52.62 degrees.
 Linear search not attempted -- first point.
 Variable       Old X    -DE/DX   Delta X   Delta X   Delta X     New X
                                 (Linear)    (Quad)   (Total)
    X1        6.66932  -0.00570   0.00000  -0.02853  -0.02853   6.64079
    Y1       -7.05754   0.01458   0.00000   0.03046   0.03046  -7.02708
    Z1       -1.31810  -0.00082   0.00000  -0.00203  -0.00203  -1.32013
    X2        6.85968  -0.00032   0.00000  -0.03244  -0.03244   6.82724
    Y2       -7.36607  -0.00385   0.00000  -0.01113  -0.01113  -7.37719
    Z2       -3.33812  -0.00154   0.00000  -0.00220  -0.00220  -3.34032
    X3        8.35696   0.00080   0.00000  -0.03346  -0.03346   8.32350
    Y3       -7.72514  -0.00428   0.00000  -0.02125  -0.02125  -7.74639
    Z3       -0.35817   0.00079   0.00000  -0.01004  -0.01004  -0.36821
    X4        3.15507   0.00374   0.00000   0.00270   0.00270   3.15777
    Y4       -2.57583  -0.00488   0.00000   0.00736   0.00736  -2.56847
    Z4        1.84786  -0.00514   0.00000  -0.02302  -0.02302   1.82484
    X5        1.87250   0.00461   0.00000   0.01841   0.01841   1.89092
    Y5       -4.22990   0.00497   0.00000   0.01813   0.01813  -4.21177
    Z5        1.79078  -0.00042   0.00000  -0.01927  -0.01927   1.77152
    X6        2.59268   0.00113   0.00000  -0.01573  -0.01573   2.57694
    Y6       -0.98257  -0.00451   0.00000   0.00817   0.00817  -0.97440
    Z6        3.87928  -0.01020   0.00000  -0.04432  -0.04432   3.83496
    X7        0.86178  -0.00559   0.00000  -0.02669  -0.02669   0.83509
    Y7       -0.42054   0.00214   0.00000   0.01089   0.01089  -0.40965
    Z7        3.71063   0.00178   0.00000   0.00015   0.00015   3.71078
    X8        5.90875  -0.01143   0.00000  -0.01537  -0.01537   5.89339
    Y8       -3.51363  -0.00714   0.00000   0.00715   0.00715  -3.50648
    Z8        1.96410  -0.00383   0.00000  -0.00812  -0.00812   1.95598
    X9        6.08269   0.00124   0.00000   0.00290   0.00290   6.08559
    Y9       -5.18364   0.00546   0.00000   0.02456   0.02456  -5.15908
    Z9        3.20235  -0.00298   0.00000  -0.01158  -0.01158   3.19077
   X10        7.36798   0.00696   0.00000   0.02094   0.02094   7.38892
   Y10       -1.48300  -0.00065   0.00000  -0.00084  -0.00084  -1.48384
   Z10        2.84074  -0.00094   0.00000  -0.02338  -0.02338   2.81736
   X11        9.11470  -0.00133   0.00000   0.01616   0.01616   9.13086
   Y11       -1.99605   0.00172   0.00000  -0.00465  -0.00465  -2.00071
   Z11        2.84354   0.00044   0.00000  -0.01427  -0.01427   2.82926
   X12        3.17968  -0.00900   0.00000  -0.00398  -0.00398   3.17570
   Y12       -1.33162   0.00563   0.00000   0.02041   0.02041  -1.31120
   Z12       -0.80084   0.00373   0.00000   0.00887   0.00887  -0.79197
   X13        4.26803  -0.00312   0.00000  -0.00706  -0.00706   4.26097
   Y13        0.43272  -0.00208   0.00000   0.01232   0.01232   0.44504
   Z13       -0.63168  -0.00232   0.00000  -0.01702  -0.01702  -0.64869
   X14        6.45749   0.00087   0.00000  -0.01319  -0.01319   6.44431
   Y14       -4.22240   0.00091   0.00000   0.01660   0.01660  -4.20579
   Z14       -0.85312   0.00675   0.00000   0.01836   0.01836  -0.83476
   X15        8.25636  -0.00279   0.00000  -0.02712  -0.02712   8.22924
   Y15       -3.34781   0.00215   0.00000   0.03205   0.03205  -3.31575
   Z15       -1.41410   0.00146   0.00000   0.01359   0.01359  -1.40052
   X16        4.46703  -0.00202   0.00000  -0.02387  -0.02387   4.44316
   Y16       -3.12024  -0.00137   0.00000  -0.00088  -0.00088  -3.12112
   Z16       -2.33800   0.00696   0.00000   0.03239   0.03239  -2.30561
   X17        0.70356   0.02057   0.00000   0.03041   0.03041   0.73397
   Y17       -0.67863   0.00675   0.00000   0.00699   0.00699  -0.67164
   Z17       -1.81958   0.00027   0.00000   0.00195   0.00195  -1.81763
   X18       -1.12155   0.00451   0.00000   0.02209   0.02209  -1.09946
   Y18       -2.53842  -0.00593   0.00000  -0.00584  -0.00584  -2.54425
   Z18       -2.20542   0.00396   0.00000   0.01664   0.01664  -2.18877
   X19       -0.56813   0.00357   0.00000   0.04589   0.04589  -0.52224
   Y19       -4.46345   0.00028   0.00000   0.00507   0.00507  -4.45838
   Z19       -1.81706   0.00082   0.00000   0.03187   0.03187  -1.78519
   X20       -3.38199  -0.00738   0.00000   0.00341   0.00341  -3.37858
   Y20       -1.97524   0.00016   0.00000  -0.02747  -0.02747  -2.00271
   Z20       -3.09467  -0.00319   0.00000   0.00094   0.00094  -3.09373
   X21       -4.73820  -0.00048   0.00000   0.00859   0.00859  -4.72960
   Y21       -3.44232  -0.00449   0.00000  -0.04492  -0.04492  -3.48724
   Z21       -3.47301   0.00072   0.00000   0.02569   0.02569  -3.44732
   X22       -4.12962  -0.01199   0.00000  -0.01708  -0.01708  -4.14670
   Y22        0.69060   0.00967   0.00000  -0.02942  -0.02942   0.66118
   Z22       -3.58513   0.01503   0.00000  -0.01973  -0.01973  -3.60485
   X23       -5.50049  -0.00117   0.00000  -0.01665  -0.01665  -5.51714
   Y23        0.77958   0.00122   0.00000  -0.00035  -0.00035   0.77923
   Z23       -5.11569  -0.00065   0.00000  -0.01663  -0.01663  -5.13232
   X24       -5.09985   0.00958   0.00000  -0.00560  -0.00560  -5.10544
   Y24        1.55159  -0.01852   0.00000  -0.11150  -0.11150   1.44009
   Z24       -1.85385  -0.02499   0.00000  -0.08227  -0.08227  -1.93612
   X25       -1.83538  -0.01429   0.00000  -0.02187  -0.02187  -1.85725
   Y25        2.28734   0.00347   0.00000  -0.00743  -0.00743   2.27991
   Z25       -4.07154  -0.00680   0.00000   0.01389   0.01389  -4.05765
   X26        0.36906   0.00688   0.00000   0.00321   0.00321   0.37227
   Y26        1.61966  -0.00853   0.00000  -0.00527  -0.00527   1.61439
   Z26       -3.05595   0.00656   0.00000   0.01236   0.01236  -3.04359
   X27        1.99601   0.00296   0.00000   0.00863   0.00863   2.00464
   Y27        2.84156   0.00053   0.00000   0.00141   0.00141   2.84298
   Z27       -3.18842   0.00126   0.00000   0.02003   0.02003  -3.16839
   X28       -2.14930  -0.01349   0.00000  -0.00601  -0.00601  -2.15531
   Y28        4.77971  -0.00707   0.00000  -0.00390  -0.00390   4.77581
   Z28       -5.33328   0.00174   0.00000   0.03458   0.03458  -5.29869
   X29       -0.89110   0.00256   0.00000   0.01702   0.01702  -0.87407
   Y29        6.60183   0.00665   0.00000   0.00557   0.00557   6.60739
   Z29       -4.79145  -0.00491   0.00000  -0.03225  -0.03225  -4.82370
   X30       -4.23929   0.02566   0.00000   0.07467   0.07467  -4.16462
   Y30        4.94560  -0.00006   0.00000  -0.00081  -0.00081   4.94479
   Z30       -7.03407  -0.00619   0.00000  -0.00124  -0.00124  -7.03531
   X31       -4.03582  -0.00271   0.00000   0.02336   0.02336  -4.01246
   Y31        6.52238  -0.00592   0.00000   0.00836   0.00836   6.53074
   Z31       -8.14069   0.00788   0.00000   0.03723   0.03723  -8.10346
   X32       -4.37219  -0.00316   0.00000  -0.01058  -0.01058  -4.38277
   Y32        3.38050   0.00544   0.00000   0.00399   0.00399   3.38449
   Z32       -8.16163   0.00715   0.00000   0.03532   0.03532  -8.12631
   X33        1.31564  -0.00181   0.00000  -0.00483  -0.00483   1.31081
   Y33        3.96287  -0.00995   0.00000  -0.03079  -0.03079   3.93208
   Z33        7.14586  -0.00027   0.00000  -0.00081  -0.00081   7.14505
   X34       -1.99697  -0.00750   0.00000   0.00646   0.00646  -1.99052
   Y34        3.90301  -0.02933   0.00000  -0.02038  -0.02038   3.88263
   Z34        3.22567   0.00728   0.00000   0.00088   0.00088   3.22656
   X35       -3.43268   0.00764   0.00000   0.00508   0.00508  -3.42760
   Y35        5.16508   0.00193   0.00000   0.01542   0.01542   5.18050
   Z35        1.23036  -0.00356   0.00000   0.00890   0.00890   1.23926
   X36       -7.23239  -0.00146   0.00000  -0.01609  -0.01609  -7.24848
   Y36        5.89568   0.00211   0.00000   0.00068   0.00068   5.89635
   Z36       -1.36297  -0.00370   0.00000  -0.01051  -0.01051  -1.37348
   X37       -5.67008  -0.01106   0.00000  -0.03832  -0.03832  -5.70840
   Y37        4.39897   0.00608   0.00000   0.04464   0.04464   4.44361
   Z37        0.41403   0.01636   0.00000   0.07221   0.07221   0.48623
   X38       -2.27851   0.00019   0.00000  -0.00612  -0.00612  -2.28463
   Y38        1.70191   0.01388   0.00000  -0.01794  -0.01794   1.68397
   Z38        3.91747  -0.00903   0.00000  -0.05289  -0.05289   3.86457
   X39        0.11433   0.01482   0.00000   0.03005   0.03005   0.14438
   Y39        5.93291   0.01525   0.00000   0.00983   0.00983   5.94273
   Z39        4.64983   0.00937   0.00000   0.02338   0.02338   4.67321
   X40       -0.28414   0.00121   0.00000  -0.00116  -0.00116  -0.28530
   Y40        3.15531   0.00071   0.00000  -0.01683  -0.01683   3.13848
   Z40        8.16163  -0.00004   0.00000   0.00634   0.00634   8.16796
   X41        2.40700   0.00113   0.00000   0.02668   0.02668   2.43368
   Y41        2.43733   0.00058   0.00000  -0.01708  -0.01708   2.42025
   Z41        6.30228   0.00215   0.00000   0.02487   0.02487   6.32715
   X42       -7.43692  -0.00147   0.00000   0.00258   0.00258  -7.43435
   Y42        4.96132  -0.00217   0.00000  -0.04183  -0.04183   4.91949
   Z42       -3.18033  -0.00272   0.00000  -0.00160  -0.00160  -3.18193
   X43       -6.36863   0.00010   0.00000  -0.00789  -0.00789  -6.37652
   Y43        7.72514   0.00276   0.00000  -0.00105  -0.00105   7.72409
   Z43       -1.69951  -0.00176   0.00000  -0.04279  -0.04279  -1.74231
   X44       -9.11470  -0.00179   0.00000  -0.02412  -0.02412  -9.13882
   Y44        6.15982   0.00131   0.00000   0.01948   0.01948   6.17930
   Z44       -0.57616   0.00002   0.00000  -0.03406  -0.03406  -0.61022
   X45       -6.57064   0.00268   0.00000   0.00773   0.00773  -6.56290
   Y45        2.79472  -0.00294   0.00000   0.00340   0.00340   2.79813
   Z45        1.31790   0.00089   0.00000   0.04927   0.04927   1.36717
   X46       -2.56128   0.00006   0.00000   0.00617   0.00617  -2.55511
   Y46        6.83586   0.00429   0.00000   0.01679   0.01679   6.85265
   Z46        0.44569  -0.00158   0.00000  -0.01017  -0.01017   0.43552
   X47        5.00033   0.00058   0.00000  -0.01864  -0.01864   4.98169
   Y47       -8.03357  -0.00184   0.00000   0.01005   0.01005  -8.02353
   Z47       -0.60772  -0.00047   0.00000  -0.00397  -0.00397  -0.61170
   X48        2.51260  -0.00299   0.00000  -0.03239  -0.03239   2.48021
   Y48        5.01436   0.00489   0.00000   0.03524   0.03524   5.04961
   Z48        8.45139  -0.00534   0.00000  -0.03551  -0.03551   8.41588
         Item               Value     Threshold  Converged?
 Maximum Force            0.029331     0.000450     NO 
 RMS     Force            0.007199     0.000300     NO 
 Maximum Displacement     0.111500     0.001800     NO 
 RMS     Displacement     0.025025     0.001200     NO 
 Predicted change in Energy=-9.979410D-03
 GradGradGradGradGradGradGradGradGradGradGradGradGradGradGradGradGradGrad

 Leave Link  103 at Sun Apr  9 10:20:40 2023, MaxMem=  2684354560 cpu:               1.7 elap:               0.1
 (Enter /opt/gaussian/g16/l9999.exe)

 Test job not archived.
 1\1\GINC-JULIO-SYS\Force\RM062X\def2TZVP\C16H24N2O5S1\JVELAZQUEZ\09-Ap
 r-2023\0\\#P M062X/Def2TZVP scf=(direct,conver=8) EmpiricalDispersion=
 GD3 NoSymm Force pop=(NBORead) Charge Prop=(Field,Read)\\Gaussian run 
 using SANDER external interface, route from template gau_job.tpl\\0,1\
 C,3.5292508332,-3.7346904326,-0.6975071576\H,3.6299885729,-3.897955491
 6,-1.7664564171\H,4.422312705,-4.0879700209,-0.1895356062\C,1.66958991
 27,-1.3630718892,0.9778475182\H,0.9908864659,-2.2383664888,0.947642211
 4\O,1.371984667,-0.5199541482,2.0528285594\H,0.456035806,-0.2225422181
 ,1.963581542\C,3.1267771341,-1.8593319946,1.0393545\H,3.218820816,-2.7
 430627817,1.6946099077\O,3.8989680817,-0.7847717673,1.5032528585\H,4.8
 232927288,-1.056265672,1.5047341678\C,1.6826155236,-0.7046627193,-0.42
 3787261\H,2.2585453488,0.2289880409,-0.3342695495\C,3.4171590562,-2.23
 43953705,-0.4514536174\H,4.3690751978,-1.7715827351,-0.7483112446\O,2.
 3638521828,-1.6511606892,-1.2372176855\N,0.3723070129,-0.3591155261,-0
 .9628823451\C,-0.5934987234,-1.3432716114,-1.167055911\H,-0.3006428702
 ,-2.3619556509,-0.9615464037\C,-1.7896696271,-1.0452544373,-1.63763108
 22\H,-2.5073461103,-1.82159532,-1.8378393481\C,-2.1852997769,0.3654510
 236,-1.897167572\H,-2.9107339478,0.4125345313,-2.7071074152\H,-2.69872
 24959,0.8210646329,-0.9810176112\C,-0.9712424501,1.210410053,-2.154564
 2407\C,0.1952961394,0.8570849391,-1.6171405302\H,1.0562428458,1.503689
 6437,-1.6872384583\C,-1.1373610967,2.5293143715,-2.8222478362\O,-0.471
 5490062,3.4935361513,-2.5355270202\N,-2.243334144,2.6170982794,-3.7222
 681615\H,-2.1356650299,3.4514946289,-4.3078670712\H,-2.3136615664,1.78
 88815218,-4.3189459973\C,0.6962052242,2.0970584336,3.7814249709\C,-1.0
 567522042,2.065384205,1.7069524115\C,-1.8164975768,2.7332408635,0.6510
 780728\C,-3.827218145,3.1198580091,-0.7212514161\C,-3.0004770574,2.327
 8353546,0.2190938854\O,-1.2057346611,0.9006136153,2.0730350216\S,0.060
 5022428,3.1395597995,2.4605834876\H,-0.1503599592,1.6697184606,4.31894
 59973\H,1.2737296157,1.289782022,3.3350234637\H,-3.9354511148,2.625418
 7126,-1.6829564579\H,-3.3701317441,4.0879700209,-0.8993438643\H,-4.823
 2927288,3.2596369551,-0.3048918583\H,-3.4770321712,1.4789039319,0.6974
 020569\H,-1.3553722784,3.6173811822,0.2358497795\H,2.6460617579,-4.251
 1845613,-0.3215937734\H,1.3296088634,2.6534860158,4.4722854313\\Versio
 n=ES64L-G16RevA.03\HF=-1507.8957923\RMSD=3.037e-09\RMSF=7.199e-03\Dipo
 le=0.1424085,-1.2126491,-0.5058026\Quadrupole=9.9167966,-7.8424559,-2.
 0743407,-8.999132,8.5245487,0.0695816\PG=C01 [X(C16H24N2O5S1)]\\@


 The number of Unix installations has grown to 10,
  with more expected.
                  -- The Unix Programmer's Manual,
                     2nd Edition, June, 1972.
 Job cpu time:       0 days  7 hours  0 minutes 22.1 seconds.
 Elapsed time:       0 days  0 hours 26 minutes 17.0 seconds.
 File lengths (MBytes):  RWF=    435 Int=      0 D2E=      0 Chk=     48 Scr=      1
 Normal termination of Gaussian 16 at Sun Apr  9 10:20:40 2023.
