 Entering Gaussian System, Link 0=g16
 Initial command:
 /opt/gaussian/g16/l1.exe "/opt/gaussian/scratch16/Gau-3403341.inp" -scrdir="/opt/gaussian/scratch16/"
 Entering Link 1 = /opt/gaussian/g16/l1.exe PID=   3403343.
  
 Copyright (c) 1988,1990,1992,1993,1995,1998,2003,2009,2016,
            Gaussian, Inc.  All Rights Reserved.
  
 This is part of the Gaussian(R) 16 program.  It is based on
 the Gaussian(R) 09 system (copyright 2009, Gaussian, Inc.),
 the Gaussian(R) 03 system (copyright 2003, Gaussian, Inc.),
 the Gaussian(R) 98 system (copyright 1998, Gaussian, Inc.),
 the Gaussian(R) 94 system (copyright 1995, Gaussian, Inc.),
 the Gaussian 92(TM) system (copyright 1992, Gaussian, Inc.),
 the Gaussian 90(TM) system (copyright 1990, Gaussian, Inc.),
 the Gaussian 88(TM) system (copyright 1988, Gaussian, Inc.),
 the Gaussian 86(TM) system (copyright 1986, Carnegie Mellon
 University), and the Gaussian 82(TM) system (copyright 1983,
 Carnegie Mellon University). Gaussian is a federally registered
 trademark of Gaussian, Inc.
  
 This software contains proprietary and confidential information,
 including trade secrets, belonging to Gaussian, Inc.
  
 This software is provided under written license and may be
 used, copied, transmitted, or stored only in accord with that
 written license.
  
 The following legend is applicable only to US Government
 contracts under FAR:
  
                    RESTRICTED RIGHTS LEGEND
  
 Use, reproduction and disclosure by the US Government is
 subject to restrictions as set forth in subparagraphs (a)
 and (c) of the Commercial Computer Software - Restricted
 Rights clause in FAR 52.227-19.
  
 Gaussian, Inc.
 340 Quinnipiac St., Bldg. 40, Wallingford CT 06492
  
  
 ---------------------------------------------------------------
 Warning -- This program may not be used in any manner that
 competes with the business of Gaussian, Inc. or will provide
 assistance to any competitor of Gaussian, Inc.  The licensee
 of this program is prohibited from giving any competitor of
 Gaussian, Inc. access to this program.  By using this program,
 the user acknowledges that Gaussian, Inc. is engaged in the
 business of creating and licensing software in the field of
 computational chemistry and represents and warrants to the
 licensee that it is not a competitor of Gaussian, Inc. and that
 it will not use this program in any manner prohibited above.
 ---------------------------------------------------------------
  

 Cite this work as:
 Gaussian 16, Revision A.03,
 M. J. Frisch, G. W. Trucks, H. B. Schlegel, G. E. Scuseria, 
 M. A. Robb, J. R. Cheeseman, G. Scalmani, V. Barone, 
 G. A. Petersson, H. Nakatsuji, X. Li, M. Caricato, A. V. Marenich, 
 J. Bloino, B. G. Janesko, R. Gomperts, B. Mennucci, H. P. Hratchian, 
 J. V. Ortiz, A. F. Izmaylov, J. L. Sonnenberg, D. Williams-Young, 
 F. Ding, F. Lipparini, F. Egidi, J. Goings, B. Peng, A. Petrone, 
 T. Henderson, D. Ranasinghe, V. G. Zakrzewski, J. Gao, N. Rega, 
 G. Zheng, W. Liang, M. Hada, M. Ehara, K. Toyota, R. Fukuda, 
 J. Hasegawa, M. Ishida, T. Nakajima, Y. Honda, O. Kitao, H. Nakai, 
 T. Vreven, K. Throssell, J. A. Montgomery, Jr., J. E. Peralta, 
 F. Ogliaro, M. J. Bearpark, J. J. Heyd, E. N. Brothers, K. N. Kudin, 
 V. N. Staroverov, T. A. Keith, R. Kobayashi, J. Normand, 
 K. Raghavachari, A. P. Rendell, J. C. Burant, S. S. Iyengar, 
 J. Tomasi, M. Cossi, J. M. Millam, M. Klene, C. Adamo, R. Cammi, 
 J. W. Ochterski, R. L. Martin, K. Morokuma, O. Farkas, 
 J. B. Foresman, and D. J. Fox, Gaussian, Inc., Wallingford CT, 2016.
 
 ******************************************
 Gaussian 16:  ES64L-G16RevA.03 25-Dec-2016
                 9-Apr-2023 
 ******************************************
 %chk=13.chk
 %NProcShared=16
 Will use up to   16 processors via shared memory.
 %mem=20GB
 ----------------------------------------------------------------------
 #P M062X/Def2TZVP scf=(direct,conver=8) EmpiricalDispersion=GD3 NoSymm
  Force pop=(NBORead) Charge Prop=(Field,Read)
 ----------------------------------------------------------------------
 1/10=7,18=10,28=-2,30=1,38=1,125=101/1,3;
 2/12=2,15=1,17=6,18=5,29=2,40=1/2;
 3/5=44,7=101,11=2,25=1,30=1,71=1,74=-55,124=31/1,2,3;
 4//1;
 5/5=2,6=8,38=5/2;
 6/7=2,8=2,9=2,10=2,14=2,15=1,28=1,40=2/1,2,7;
 7/7=1,16=-2,29=1,30=1/1,2,3,16;
 1/10=7,18=10,28=-2,30=1/3;
 99/12=1/99;
 Leave Link    1 at Sun Apr  9 09:54:17 2023, MaxMem=  2684354560 cpu:               1.1 elap:               0.1
 (Enter /opt/gaussian/g16/l101.exe)
 ----------------------------------------------------------------------
 Gaussian run using SANDER external interface, route from template gau_
 job.tpl
 ----------------------------------------------------------------------
 Symbolic Z-matrix:
 Charge =  0 Multiplicity = 1
 C                     3.52307  -3.70084  -0.69897 
 H                     3.62093  -3.86476  -1.76826 
 H                     4.41778  -4.05326  -0.19322 
 C                     1.6665   -1.32581   0.97804 
 H                     0.98707  -2.20006   0.94522 
 O                     1.37435  -0.48703   2.05654 
 H                     0.45491  -0.19616   1.97982 
 C                     3.12327  -1.82559   1.03906 
 H                     3.2145   -2.70907   1.694 
 O                     3.89798  -0.75127   1.5021 
 H                     4.82146  -1.0269    1.51254 
 C                     1.68446  -0.66492  -0.42257 
 H                     2.26611   0.26359  -0.33126 
 C                     3.41183  -2.20081  -0.45219 
 H                     4.3628   -1.73742  -0.75104 
 O                     2.35736  -1.61698  -1.2364 
 N                     0.38093  -0.31094  -0.96845 
 C                    -0.60972  -1.27273  -1.12132 
 H                    -0.3371   -2.29275  -0.89376 
 C                    -1.81292  -0.95807  -1.56745 
 H                    -2.55255  -1.72398  -1.72042 
 C                    -2.18479   0.44995  -1.84744 
 H                    -2.92994   0.50959  -2.63891 
 H                    -2.68488   0.95328  -0.90605 
 C                    -0.96884   1.27241  -2.13287 
 C                     0.20385   0.90487  -1.61398 
 H                     1.07028   1.54104  -1.70355 
 C                    -1.13032   2.5871   -2.81539 
 O                    -0.46381   3.55394  -2.54434 
 N                    -2.23334   2.65861  -3.72616 
 H                    -2.12167   3.48104  -4.32878 
 H                    -2.29302   1.81882  -4.30878 
 C                     0.69128   2.12046   3.78875 
 C                    -1.05162   2.05725   1.71468 
 C                    -1.81105   2.70776   0.65342 
 C                    -3.83706   3.09464  -0.69956 
 C                    -3.00184   2.29325   0.23051 
 O                    -1.19404   0.89463   2.09454 
 S                     0.05973   3.14681   2.45552 
 H                    -0.15777   1.70114   4.32878 
 H                     1.26784   1.30722   3.35285 
 H                    -3.97377   2.59326  -1.65321 
 H                    -3.36696   4.05326  -0.8968 
 H                    -4.82146   3.25754  -0.26377 
 H                    -3.49741   1.48896   0.76591 
 H                    -1.34682   3.57985   0.2171 
 H                     2.64138  -4.21767  -0.32002 
 H                     1.32419   2.68517   4.47332 
 
 ITRead=  0  0  0  0  0  0  0  0  0  0  0  0  0  0  0  0  0  0  0  0
 ITRead=  0  0  0  0  0  0  0  0  0  0  0  0  0  0  0  0  0  0  0  0
 ITRead=  0  0  0  0  0  0  0  0
 MicOpt= -1 -1 -1 -1 -1 -1 -1 -1 -1 -1 -1 -1 -1 -1 -1 -1 -1 -1 -1 -1
 MicOpt= -1 -1 -1 -1 -1 -1 -1 -1 -1 -1 -1 -1 -1 -1 -1 -1 -1 -1 -1 -1
 MicOpt= -1 -1 -1 -1 -1 -1 -1 -1
 NAtoms=     48 NQM=       48 NQMF=       0 NMMI=      0 NMMIF=      0
                NMic=       0 NMicF=      0.
                    Isotopes and Nuclear Properties:
 (Nuclear quadrupole moments (NQMom) in fm**2, nuclear magnetic moments (NMagM)
  in nuclear magnetons)

  Atom         1           2           3           4           5           6           7           8           9          10
 IAtWgt=          12           1           1          12           1          16           1          12           1          16
 AtmWgt=  12.0000000   1.0078250   1.0078250  12.0000000   1.0078250  15.9949146   1.0078250  12.0000000   1.0078250  15.9949146
 NucSpn=           0           1           1           0           1           0           1           0           1           0
 AtZEff=  -0.0000000  -0.0000000  -0.0000000  -0.0000000  -0.0000000  -0.0000000  -0.0000000  -0.0000000  -0.0000000  -0.0000000
 NQMom=    0.0000000   0.0000000   0.0000000   0.0000000   0.0000000   0.0000000   0.0000000   0.0000000   0.0000000   0.0000000
 NMagM=    0.0000000   2.7928460   2.7928460   0.0000000   2.7928460   0.0000000   2.7928460   0.0000000   2.7928460   0.0000000
 AtZNuc=   6.0000000   1.0000000   1.0000000   6.0000000   1.0000000   8.0000000   1.0000000   6.0000000   1.0000000   8.0000000

  Atom        11          12          13          14          15          16          17          18          19          20
 IAtWgt=           1          12           1          12           1          16          14          12           1          12
 AtmWgt=   1.0078250  12.0000000   1.0078250  12.0000000   1.0078250  15.9949146  14.0030740  12.0000000   1.0078250  12.0000000
 NucSpn=           1           0           1           0           1           0           2           0           1           0
 AtZEff=  -0.0000000  -0.0000000  -0.0000000  -0.0000000  -0.0000000  -0.0000000  -0.0000000  -0.0000000  -0.0000000  -0.0000000
 NQMom=    0.0000000   0.0000000   0.0000000   0.0000000   0.0000000   0.0000000   2.0440000   0.0000000   0.0000000   0.0000000
 NMagM=    2.7928460   0.0000000   2.7928460   0.0000000   2.7928460   0.0000000   0.4037610   0.0000000   2.7928460   0.0000000
 AtZNuc=   1.0000000   6.0000000   1.0000000   6.0000000   1.0000000   8.0000000   7.0000000   6.0000000   1.0000000   6.0000000

  Atom        21          22          23          24          25          26          27          28          29          30
 IAtWgt=           1          12           1           1          12          12           1          12          16          14
 AtmWgt=   1.0078250  12.0000000   1.0078250   1.0078250  12.0000000  12.0000000   1.0078250  12.0000000  15.9949146  14.0030740
 NucSpn=           1           0           1           1           0           0           1           0           0           2
 AtZEff=  -0.0000000  -0.0000000  -0.0000000  -0.0000000  -0.0000000  -0.0000000  -0.0000000  -0.0000000  -0.0000000  -0.0000000
 NQMom=    0.0000000   0.0000000   0.0000000   0.0000000   0.0000000   0.0000000   0.0000000   0.0000000   0.0000000   2.0440000
 NMagM=    2.7928460   0.0000000   2.7928460   2.7928460   0.0000000   0.0000000   2.7928460   0.0000000   0.0000000   0.4037610
 AtZNuc=   1.0000000   6.0000000   1.0000000   1.0000000   6.0000000   6.0000000   1.0000000   6.0000000   8.0000000   7.0000000

  Atom        31          32          33          34          35          36          37          38          39          40
 IAtWgt=           1           1          12          12          12          12          12          16          32           1
 AtmWgt=   1.0078250   1.0078250  12.0000000  12.0000000  12.0000000  12.0000000  12.0000000  15.9949146  31.9720718   1.0078250
 NucSpn=           1           1           0           0           0           0           0           0           0           1
 AtZEff=  -0.0000000  -0.0000000  -0.0000000  -0.0000000  -0.0000000  -0.0000000  -0.0000000  -0.0000000  -0.0000000  -0.0000000
 NQMom=    0.0000000   0.0000000   0.0000000   0.0000000   0.0000000   0.0000000   0.0000000   0.0000000   0.0000000   0.0000000
 NMagM=    2.7928460   2.7928460   0.0000000   0.0000000   0.0000000   0.0000000   0.0000000   0.0000000   0.0000000   2.7928460
 AtZNuc=   1.0000000   1.0000000   6.0000000   6.0000000   6.0000000   6.0000000   6.0000000   8.0000000  16.0000000   1.0000000

  Atom        41          42          43          44          45          46          47          48
 IAtWgt=           1           1           1           1           1           1           1           1
 AtmWgt=   1.0078250   1.0078250   1.0078250   1.0078250   1.0078250   1.0078250   1.0078250   1.0078250
 NucSpn=           1           1           1           1           1           1           1           1
 AtZEff=  -0.0000000  -0.0000000  -0.0000000  -0.0000000  -0.0000000  -0.0000000  -0.0000000  -0.0000000
 NQMom=    0.0000000   0.0000000   0.0000000   0.0000000   0.0000000   0.0000000   0.0000000   0.0000000
 NMagM=    2.7928460   2.7928460   2.7928460   2.7928460   2.7928460   2.7928460   2.7928460   2.7928460
 AtZNuc=   1.0000000   1.0000000   1.0000000   1.0000000   1.0000000   1.0000000   1.0000000   1.0000000
 Background charge distribution read from input stream:
 Leave Link  101 at Sun Apr  9 09:54:17 2023, MaxMem=  2684354560 cpu:               4.1 elap:               0.3
 (Enter /opt/gaussian/g16/l103.exe)

 GradGradGradGradGradGradGradGradGradGradGradGradGradGradGradGradGradGrad
 Berny optimization.
 Initialization pass.
 Trust Radius=3.00D-01 FncErr=1.00D-07 GrdErr=1.00D-07 EigMax=2.50D+02 EigMin=1.00D-04
 Number of steps in this run=      2 maximum allowed number of steps=      2.
 GradGradGradGradGradGradGradGradGradGradGradGradGradGradGradGradGradGrad

 Leave Link  103 at Sun Apr  9 09:54:17 2023, MaxMem=  2684354560 cpu:               0.4 elap:               0.0
 (Enter /opt/gaussian/g16/l202.exe)
 ---------------------------------------------------------------------------------------------------
                            Z-MATRIX (ANGSTROMS AND DEGREES)
   CD    Cent   Atom    N1       Length/X        N2       Alpha/Y        N3        Beta/Z          J
 ---------------------------------------------------------------------------------------------------
      1      1  C        0   3.523070         -3.700835         -0.698968
      2      2  H        0   3.620929         -3.864764         -1.768263
      3      3  H        0   4.417780         -4.053260         -0.193219
      4      4  C        0   1.666496         -1.325812          0.978044
      5      5  H        0   0.987070         -2.200056          0.945224
      6      6  O        0   1.374350         -0.487034          2.056536
      7      7  H        0   0.454910         -0.196159          1.979821
      8      8  C        0   3.123269         -1.825592          1.039064
      9      9  H        0   3.214503         -2.709069          1.694000
     10     10  O        0   3.897980         -0.751272          1.502100
     11     11  H        0   4.821456         -1.026896          1.512536
     12     12  C        0   1.684461         -0.664917         -0.422571
     13     13  H        0   2.266112          0.263587         -0.331263
     14     14  C        0   3.411827         -2.200811         -0.452190
     15     15  H        0   4.362805         -1.737419         -0.751036
     16     16  O        0   2.357356         -1.616982         -1.236397
     17     17  N        0   0.380930         -0.310942         -0.968449
     18     18  C        0  -0.609723         -1.272730         -1.121321
     19     19  H        0  -0.337096         -2.292751         -0.893762
     20     20  C        0  -1.812924         -0.958073         -1.567449
     21     21  H        0  -2.552548         -1.723981         -1.720417
     22     22  C        0  -2.184790          0.449946         -1.847437
     23     23  H        0  -2.929943          0.509595         -2.638909
     24     24  H        0  -2.684878          0.953277         -0.906052
     25     25  C        0  -0.968838          1.272412         -2.132871
     26     26  C        0   0.203845          0.904867         -1.613977
     27     27  H        0   1.070281          1.541037         -1.703551
     28     28  C        0  -1.130315          2.587104         -2.815395
     29     29  O        0  -0.463808          3.553940         -2.544343
     30     30  N        0  -2.233336          2.658610         -3.726157
     31     31  H        0  -2.121673          3.481043         -4.328776
     32     32  H        0  -2.293020          1.818821         -4.308777
     33     33  C        0   0.691283          2.120460          3.788749
     34     34  C        0  -1.051622          2.057250          1.714680
     35     35  C        0  -1.811051          2.707757          0.653418
     36     36  C        0  -3.837060          3.094640         -0.699560
     37     37  C        0  -3.001836          2.293246          0.230512
     38     38  O        0  -1.194038          0.894629          2.094543
     39     39  S        0   0.059735          3.146811          2.455524
     40     40  H        0  -0.157769          1.701144          4.328776
     41     41  H        0   1.267838          1.307215          3.352849
     42     42  H        0  -3.973772          2.593260         -1.653206
     43     43  H        0  -3.366963          4.053260         -0.896800
     44     44  H        0  -4.821456          3.257539         -0.263766
     45     45  H        0  -3.497412          1.488962          0.765914
     46     46  H        0  -1.346820          3.579854          0.217100
     47     47  H        0   2.641378         -4.217670         -0.320020
     48     48  H        0   1.324185          2.685171          4.473319
 ---------------------------------------------------------------------------------------------------
                         Z-Matrix orientation:                         
 ---------------------------------------------------------------------
 Center     Atomic      Atomic             Coordinates (Angstroms)
 Number     Number       Type             X           Y           Z
 ---------------------------------------------------------------------
      1          6           0        3.523070   -3.700835   -0.698968
      2          1           0        3.620929   -3.864764   -1.768263
      3          1           0        4.417780   -4.053260   -0.193219
      4          6           0        1.666496   -1.325812    0.978044
      5          1           0        0.987070   -2.200056    0.945224
      6          8           0        1.374350   -0.487034    2.056536
      7          1           0        0.454910   -0.196159    1.979821
      8          6           0        3.123269   -1.825592    1.039064
      9          1           0        3.214503   -2.709069    1.694000
     10          8           0        3.897980   -0.751272    1.502100
     11          1           0        4.821456   -1.026896    1.512536
     12          6           0        1.684461   -0.664917   -0.422571
     13          1           0        2.266112    0.263587   -0.331263
     14          6           0        3.411827   -2.200811   -0.452190
     15          1           0        4.362805   -1.737419   -0.751036
     16          8           0        2.357356   -1.616982   -1.236397
     17          7           0        0.380930   -0.310942   -0.968449
     18          6           0       -0.609723   -1.272730   -1.121321
     19          1           0       -0.337096   -2.292751   -0.893762
     20          6           0       -1.812924   -0.958073   -1.567449
     21          1           0       -2.552548   -1.723981   -1.720417
     22          6           0       -2.184790    0.449946   -1.847437
     23          1           0       -2.929943    0.509595   -2.638909
     24          1           0       -2.684878    0.953277   -0.906052
     25          6           0       -0.968838    1.272412   -2.132871
     26          6           0        0.203845    0.904867   -1.613977
     27          1           0        1.070281    1.541037   -1.703551
     28          6           0       -1.130315    2.587104   -2.815395
     29          8           0       -0.463808    3.553940   -2.544343
     30          7           0       -2.233336    2.658610   -3.726157
     31          1           0       -2.121673    3.481043   -4.328776
     32          1           0       -2.293020    1.818821   -4.308777
     33          6           0        0.691283    2.120460    3.788749
     34          6           0       -1.051622    2.057250    1.714680
     35          6           0       -1.811051    2.707757    0.653418
     36          6           0       -3.837060    3.094640   -0.699560
     37          6           0       -3.001836    2.293246    0.230512
     38          8           0       -1.194038    0.894629    2.094543
     39         16           0        0.059735    3.146811    2.455524
     40          1           0       -0.157769    1.701144    4.328776
     41          1           0        1.267838    1.307215    3.352849
     42          1           0       -3.973772    2.593260   -1.653206
     43          1           0       -3.366963    4.053260   -0.896800
     44          1           0       -4.821456    3.257539   -0.263766
     45          1           0       -3.497412    1.488962    0.765914
     46          1           0       -1.346820    3.579854    0.217100
     47          1           0        2.641378   -4.217670   -0.320020
     48          1           0        1.324185    2.685171    4.473319
 ---------------------------------------------------------------------
                    Distance matrix (angstroms):
                    1          2          3          4          5
     1  C    0.000000
     2  H    1.086204   0.000000
     3  H    1.086504   1.775180   0.000000
     4  C    3.449633   4.219986   4.047269   0.000000
     5  H    3.374463   4.131765   4.062042   1.107700   0.000000
     6  O    4.747454   5.575416   5.200176   1.397156   2.078327
     7  H    5.373293   6.126212   5.941689   1.935876   2.317151
     8  C    2.587881   3.505277   2.856008   1.541328   2.170801
     9  H    2.608661   3.672612   2.610808   2.195978   2.404416
    10  O    3.699349   4.523922   3.747989   2.363102   3.298861
    11  H    3.704930   4.500933   3.497346   3.213845   4.049773
    12  C    3.560011   3.974899   4.359416   1.548815   2.171145
    13  H    4.175140   4.576438   4.825339   2.144764   3.055307
    14  C    1.524253   2.131786   2.123811   2.420201   2.798609
    15  H    2.136087   2.471988   2.382708   3.229430   3.806168
    16  O    2.447481   2.632874   3.356936   2.337908   2.641425
    17  N    4.630015   4.875136   5.558964   2.543910   2.756502
    18  C    4.811866   5.003558   5.819665   3.096986   2.771333
    19  H    4.113578   4.347636   5.118495   2.907406   2.268012
    20  C    6.062164   6.165707   7.091569   4.326792   3.961819
    21  H    6.470273   6.534299   7.506220   5.023999   4.456589
    22  C    7.150359   7.233904   8.161448   5.095986   4.988203
    23  H    7.945594   7.925085   8.988329   6.130116   5.960806
    24  H    7.761589   7.982489   8.719019   5.261038   5.182078
    25  C    6.853211   6.898514   7.819251   4.834620   5.035701
    26  C    5.750391   5.869383   6.660242   3.719389   4.099207
    27  H    5.873891   5.977683   6.692011   3.970548   4.584617
    28  C    8.103791   8.080681   9.041658   6.125622   6.445345
    29  O    8.481295   8.504384   9.339549   6.384151   6.884083
    30  N    9.096297   8.981102  10.088022   7.294780   7.469903
    31  H    9.829446   9.669260  10.799675   8.100520   8.351901
    32  H    8.793420   8.586743   9.821099   7.315529   7.383420
    33  C    7.876935   8.676757   8.237576   4.552790   5.180732
    34  C    7.740094   8.308663   8.419784   4.401808   4.782571
    35  C    8.447003   8.863915   9.231819   5.335579   5.656966
    36  C   10.017485  10.256561  10.931205   7.255611   7.349242
    37  C    8.908835   9.261599   9.772839   5.953966   6.050781
    38  O    7.153538   7.794678   7.823551   3.789404   3.956670
    39  S    8.296732   8.926627   8.823231   4.976845   5.632934
    40  H    8.246707   9.079195   8.631179   4.870094   5.289465
    41  H    6.825237   7.649327   7.157613   3.568118   4.263384
    42  H    9.835082   9.969895  10.803978   7.354946   7.371409
    43  H   10.374858  10.596471  11.261123   7.601655   7.839299
    44  H   10.873798  11.147402  11.782030   8.040070   8.061388
    45  H    8.852516   9.260411   9.710119   5.885057   5.809611
    46  H    8.807011   9.167472   9.574100   5.807295   6.275712
    47  H    1.090000   1.783667   1.788495   3.316354   2.899714
    48  H    8.506981   9.334561   8.760899   5.331239   6.035440
                    6          7          8          9         10
     6  O    0.000000
     7  H    0.967400   0.000000
     8  C    2.426048   3.264999   0.000000
     9  H    2.907754   3.743229   1.103538   0.000000
    10  O    2.597292   3.520099   1.403120   2.082532   0.000000
    11  H    3.531278   4.469362   1.935440   2.333438   0.963787
    12  C    2.504752   2.739164   2.356632   3.316544   2.934533
    13  H    2.657114   2.972025   2.641436   3.719923   2.655966
    14  C    3.658148   4.321651   1.564574   2.214361   2.481282
    15  H    4.286815   5.010460   2.179146   2.870697   2.503032
    16  O    3.617525   3.997762   2.409951   3.242620   3.259194
    17  N    3.188797   2.951431   3.720846   4.568236   4.320549
    18  C    3.827876   3.451019   4.348350   4.961230   5.241530
    19  H    3.859264   3.644236   3.991012   4.414033   5.104134
    20  C    4.849109   4.278634   5.649115   6.243241   6.486857
    21  H    5.587123   5.007076   6.311890   6.774032   7.275994
    22  C    5.365298   4.693973   6.456428   7.188430   7.047157
    23  H    6.447279   5.769574   7.458013   8.178515   8.084446
    24  H    5.227691   4.416757   6.726081   7.414563   7.213786
    25  C    5.112466   4.593256   6.033585   6.928021   6.402674
    26  C    4.096356   3.767052   4.797611   5.750418   5.108754
    27  H    4.282965   4.118709   4.803217   5.848457   4.850440
    28  C    6.281670   5.766593   7.240284   8.201313   7.420867
    29  O    6.393464   5.947718   7.392381   8.409448   7.343960
    30  N    7.506665   6.923479   8.456277   9.373848   8.749572
    31  H    8.290960   7.743320   9.191491  10.152147   9.388707
    32  H    7.699596   7.152464   8.439037   9.320297   8.871311
    33  C    3.204086   2.948697   5.389495   5.837719   4.874271
    34  C    3.532080   2.723562   5.741310   6.396722   5.694870
    35  C    4.724639   3.914928   6.711744   7.461971   6.728906
    36  C    6.898062   6.035682   8.699292   9.441224   8.914550
    37  C    5.496847   4.605032   7.425328   8.112202   7.648103
    38  O    2.916686   1.980406   5.210833   5.708091   5.384109
    39  S    3.884872   3.399692   6.009692   6.695059   5.553035
    40  H    3.506934   3.081026   5.833120   6.145262   5.518473
    41  H    2.216101   2.192303   4.314014   4.761494   3.818415
    42  H    7.200890   6.371262   8.783084   9.538857   9.116267
    43  H    7.198368   6.398376   8.968366   9.785552   9.034248
    44  H    7.602213   6.693411   9.521252  10.198524   9.757941
    45  H    5.413347   4.464756   7.409068   7.970860   7.762244
    46  H    5.227607   4.540010   7.062307   7.908063   6.922269
    47  H    4.601198   5.122740   2.793092   2.580819   4.112795
    48  H    3.988263   3.908354   5.947924   6.355764   5.221274
                   11         12         13         14         15
    11  H    0.000000
    12  C    3.703567   0.000000
    13  H    3.405103   1.099442   0.000000
    14  C    2.687987   2.311632   2.720394   0.000000
    15  H    2.416394   2.903735   2.928542   1.099272   0.000000
    16  O    3.738532   1.421805   2.089050   1.437967   2.066859
    17  N    5.136745   1.456871   2.071231   3.608942   4.235260
    18  C    6.041137   2.474059   3.354830   4.181141   5.007902
    19  H    5.831236   2.637908   3.691606   3.775959   4.734747
    20  C    7.314782   3.691664   4.433863   5.485091   6.278020
    21  H    8.081698   4.556124   5.394410   6.116333   6.982978
    22  C    7.909360   4.271331   4.705746   6.347862   6.989826
    23  H    8.926336   5.252081   5.690758   7.235060   7.861126
    24  H    8.131156   4.684381   5.031735   6.879250   7.545443
    25  C    7.218263   3.703831   3.837762   5.837654   6.276541
    26  C    5.901620   2.464933   2.511879   4.613690   5.002328
    27  H    5.568556   2.623807   2.223750   4.588047   4.743024
    28  C    8.198509   4.921809   4.806803   7.009987   7.289543
    29  O    8.085564   5.188037   4.814209   7.246710   7.383131
    30  N    9.528743   6.108080   6.124253   8.136381   8.466728
    31  H   10.131608   6.850845   6.751651   8.827854   9.059858
    32  H    9.622971   6.090313   6.247004   7.973455   8.342923
    33  C    5.669685   5.145866   4.785663   6.637794   6.998068
    34  C    6.636706   4.411823   4.290742   6.538256   7.056578
    35  C    7.660018   4.975066   4.854567   7.252232   7.736186
    36  C    9.841257   6.685670   6.737894   8.980499   9.517838
    37  C    8.594814   5.580199   5.673304   7.861152   8.452670
    38  O    6.341700   4.129625   4.272632   6.105865   6.775212
    39  S    6.401800   5.045040   4.576818   6.948985   7.256317
    40  H    6.337673   5.618483   5.445892   7.129159   7.619960
    41  H    4.632821   4.279799   3.957069   5.601898   5.974152
    42  H   10.024145   6.644229   6.790512   8.886655   9.437542
    43  H    9.932929   6.928417   6.812707   9.233801   9.659323
    44  H   10.700345   7.598541   7.694278   9.880083  10.466025
    45  H    8.722989   5.736156   5.993625   7.926902   8.630972
    46  H    7.806915   5.255085   4.934735   7.517231   7.861965
    47  H    4.276919   3.680796   4.496956   2.163048   3.049709
    48  H    5.897167   5.943284   5.462170   7.245116   7.489085
                   16         17         18         19         20
    16  O    0.000000
    17  N    2.384071   0.000000
    18  C    2.989198   1.389172   0.000000
    19  H    2.798952   2.109195   1.080070   0.000000
    20  C    4.234972   2.364440   1.321261   2.100782   0.000000
    21  H    4.934863   3.341770   2.082574   2.432095   1.075666
    22  C    5.027589   2.816823   2.444523   3.441781   1.482969
    23  H    5.868977   3.798104   3.295933   4.197801   2.133028
    24  H    5.669169   3.316824   3.050855   4.006111   2.202501
    25  C    4.496202   2.384274   2.762236   3.826863   2.450969
    26  C    3.337649   1.387897   2.376243   3.322061   2.745919
    27  H    3.442075   2.108414   3.328467   4.163460   3.817977
    28  C    5.686072   3.754163   4.247260   5.304229   3.819896
    29  O    6.033914   4.258443   5.034186   6.076534   4.809647
    30  N    6.749373   4.822611   4.987657   6.011169   4.232867
    31  H    7.457504   5.651015   5.930609   6.951311   5.236985
    32  H    6.547538   4.779508   4.748795   5.691484   3.931477
    33  C    6.480460   5.351539   6.108612   6.516126   6.666129
    34  C    5.816353   3.854831   4.396241   5.122209   4.521518
    35  C    6.296855   4.067896   4.520748   5.437958   4.286090
    36  C    7.801177   5.427867   5.446789   6.427398   4.612467
    37  C    6.794309   4.434232   4.501760   5.421826   3.900930
    38  O    5.478663   3.649088   3.921816   4.452382   4.150386
    39  S    6.450044   4.876763   5.724887   6.400314   6.044935
    40  H    6.950321   5.692037   6.225090   6.577101   6.676559
    41  H    5.549699   4.698793   5.495411   5.793900   6.231529
    42  H    7.614660   5.278893   5.152243   6.138019   4.157955
    43  H    8.064415   5.753094   6.001579   7.032208   5.289449
    44  H    8.731683   6.347870   6.244792   7.163246   5.340621
    45  H    6.923470   4.614023   4.418975   5.200334   3.777574
    46  H    6.545279   4.419156   5.087460   6.061439   4.898433
    47  H    2.772001   4.559891   4.459194   3.592464   5.658785
    48  H    7.223352   6.283253   7.120742   7.506338   7.720463
                   21         22         23         24         25
    21  H    0.000000
    22  C    2.208470   0.000000
    23  H    2.444364   1.088686   0.000000
    24  H    2.801501   1.178828   1.805465   0.000000
    25  C    3.414181   1.495481   2.164231   2.133477   0.000000
    26  C    3.810496   2.442752   3.320746   2.974596   1.333989
    27  H    4.877040   3.436084   4.235629   3.883643   2.101067
    28  C    4.669815   2.572217   2.754242   2.954936   1.490076
    29  O    5.735690   3.616937   3.919031   3.792176   2.372706
    30  N    4.830320   2.900024   2.507116   3.326416   2.461516
    31  H    5.837934   3.917726   3.512614   4.292067   3.321006
    32  H    4.395271   2.818461   2.215446   3.532882   2.605108
    33  C    7.460099   6.544388   7.551354   5.899317   6.208121
    34  C    5.324507   4.068928   4.987691   3.279408   3.927654
    35  C    5.081852   3.389937   4.113788   2.504740   3.245449
    36  C    5.090308   3.322955   3.356545   2.440410   3.688034
    37  C    4.488441   2.895375   3.379373   1.785430   3.280360
    38  O    4.822508   4.088831   5.056400   3.351062   4.250231
    39  S    6.927274   5.552158   6.468874   4.862581   5.062084
    40  H    7.352495   6.619662   7.592982   5.860803   6.526448
    41  H    7.037153   6.300677   7.359261   5.821295   5.924277
    42  H    4.545654   2.798567   2.530386   2.215634   3.317279
    43  H    5.892209   3.909618   3.972844   3.174149   3.874530
    44  H    5.664390   4.164444   4.095158   3.207354   4.719845
    45  H    4.171045   3.103568   3.588036   1.934591   3.852730
    46  H    5.773943   3.841983   4.482137   3.154485   3.315044
    47  H    5.929288   6.885604   7.665761   7.446551   6.816237
    48  H    8.534169   7.567107   8.568227   6.928902   7.134114
                   26         27         28         29         30
    26  C    0.000000
    27  H    1.078632   0.000000
    28  C    2.460347   2.678259   0.000000
    29  O    2.885988   2.666859   1.205186   0.000000
    30  N    3.671072   4.031599   1.432221   2.308578   0.000000
    31  H    4.406229   4.565522   2.017979   2.436808   1.025678
    32  H    3.785710   4.263351   2.042629   3.077318   1.023843
    33  C    5.559200   5.535768   6.866636   6.595238   8.081882
    34  C    3.739537   4.056261   4.561635   4.552459   5.600070
    35  C    3.528640   3.901104   3.537036   3.571661   4.400161
    36  C    4.686169   5.244395   3.472869   3.872082   3.452875
    37  C    3.950459   4.570400   3.586989   3.966202   4.047136
    38  O    3.963244   4.468837   5.193845   5.396706   6.170277
    39  S    4.648432   4.571391   5.432502   5.043662   6.611331
    40  H    6.006757   6.158142   7.264293   7.125046   8.372972
    41  H    5.095422   5.065658   6.740659   6.543948   8.012292
    42  H    4.506073   5.152880   3.071802   3.746582   2.707491
    43  H    4.814290   5.162484   3.291385   3.375208   3.351928
    44  H    5.710672   6.303326   4.537049   4.927269   4.364084
    45  H    4.438958   5.192763   4.431122   4.942135   4.810891
    46  H    3.593460   3.699736   3.198195   2.899302   4.145344
    47  H    5.818614   6.127415   8.170526   8.659544   9.091085
    48  H    6.440482   6.287069   7.691524   7.293783   8.938013
                   31         32         33         34         35
    31  H    0.000000
    32  H    1.671150   0.000000
    33  C    8.698168   8.635218   0.000000
    34  C    6.300441   6.154669   2.709885   0.000000
    35  C    5.051407   5.064176   4.054244   1.458139   0.000000
    36  C    4.032750   4.127739   6.449793   3.829281   2.466767
    37  C    4.792980   4.618728   5.131280   2.462068   1.329901
    38  O    6.986349   6.562347   2.815570   1.231368   2.396869
    39  S    7.134212   7.283872   1.797147   1.723690   2.634425
    40  H    9.054180   8.898341   1.090112   2.785549   4.153898
    41  H    8.673043   8.464158   1.088022   2.937013   4.327587
    42  H    3.372996   3.236779   7.183394   4.490982   3.164014
    43  H    3.695489   4.217542   6.493030   4.020533   2.575735
    44  H    4.884986   4.982470   6.935857   4.423413   3.194687
    45  H    5.640649   5.226075   5.203987   2.684212   2.083730
    46  H    4.612499   4.947736   4.363528   2.155971   1.080017
    47  H    9.900856   8.757721   7.801073   7.559952   8.290552
    48  H    9.486002   9.537293   1.090000   3.694433   4.941848
                   36         37         38         39         40
    36  C    0.000000
    37  C    1.484879   0.000000
    38  O    4.430872   2.949385   0.000000
    39  S    5.014209   3.879751   2.602802   0.000000
    40  H    6.384605   5.023452   2.591547   2.376202   0.000000
    41  H    6.758468   5.380647   2.795424   2.376724   1.771996
    42  H    1.086054   2.140809   4.965671   5.784225   7.151354
    43  H    1.085747   2.121744   4.862785   4.878728   6.567954
    44  H    1.088800   2.117826   4.929820   5.588634   6.727836
    45  H    2.200268   1.085875   2.724704   4.272767   4.887966
    46  H    2.697590   2.096334   3.280026   2.678893   4.674321
    47  H    9.776711   8.633712   6.831993   8.282759   8.029875
    48  H    7.318797   6.072024   3.899496   2.425581   1.784766
                   41         42         43         44         45
    41  H    0.000000
    42  H    7.361316   0.000000
    43  H    6.861607   1.752702   0.000000
    44  H    7.345963   1.757947   1.774670   0.000000
    45  H    5.425206   2.701581   3.058964   2.437458   0.000000
    46  H    4.672713   3.372282   2.354965   3.522529   3.049274
    47  H    6.775023   9.587823  10.239194  10.562944   8.451605
    48  H    1.776904   8.100068   7.260628   7.780520   6.198674
                   46         47         48
    46  H    0.000000
    47  H    8.774713   0.000000
    48  H    5.103933   8.506486   0.000000
 Symmetry turned off by external request.
 Stoichiometry    C16H24N2O5S
 Framework group  C1[X(C16H24N2O5S)]
 Deg. of freedom   138
 Full point group                 C1      NOp   1
 Rotational constants (GHZ):           0.2867037           0.1659467           0.1243569
 Leave Link  202 at Sun Apr  9 09:54:17 2023, MaxMem=  2684354560 cpu:               0.1 elap:               0.0
 (Enter /opt/gaussian/g16/l301.exe)
 Standard basis: def2TZVP (5D, 7F)
 Ernie: Thresh=  0.10000D-02 Tol=  0.10000D-05 Strict=F.
   894 basis functions,  1434 primitive gaussians,  1014 cartesian basis functions
    95 alpha electrons       95 beta electrons
       nuclear repulsion energy      2427.4147351608 Hartrees.
 IExCor= 4336 DFT=T Ex+Corr=M062X ExCW=0 ScaHFX=  0.540000
 ScaDFX=  1.000000  1.000000  1.000000  1.000000 ScalE2=  1.000000  1.000000
 IRadAn=      5 IRanWt=     -1 IRanGd=            0 ICorTp=0 IEmpDi=131
 NAtoms=   48 NActive=   48 NUniq=   48 SFac= 1.00D+00 NAtFMM=   60 NAOKFM=F Big=F
 Integral buffers will be    131072 words long.
 Raffenetti 2 integral format.
 Two-electron integral symmetry is turned off.
 R6Disp:  Grimme-D3 Dispersion energy=       -0.0041740612 Hartrees.
 Nuclear repulsion after empirical dispersion term =     2427.4105610996 Hartrees.
 Leave Link  301 at Sun Apr  9 09:54:17 2023, MaxMem=  2684354560 cpu:               1.0 elap:               0.1
 (Enter /opt/gaussian/g16/l302.exe)
 NPDir=0 NMtPBC=     1 NCelOv=     1 NCel=       1 NClECP=     1 NCelD=      1
         NCelK=      1 NCelE2=     1 NClLst=     1 CellRange=     0.0.
 One-electron integrals computed using PRISM.
   1 Symmetry operations used in ECPInt.
 ECPInt:  NShTT=   65703 NPrTT=  200010 LenC2=   55952 LenP2D=  118405.
 LDataN:  DoStor=T MaxTD1= 6 Len=  172
 NBasis=   894 RedAO= T EigKep=  3.22D-05  NBF=   894
 NBsUse=   894 1.00D-06 EigRej= -1.00D+00 NBFU=   894
 Precomputing XC quadrature grid using
 IXCGrd= 4 IRadAn=           5 IRanWt=          -1 IRanGd=           0 AccXCQ= 0.00D+00.
 Generated NRdTot=       0 NPtTot=           0 NUsed=           0 NTot=          32
 NSgBfM=  1000   999  1000  1000  1000 MxSgAt=    48 MxSgA2=    48.
 Leave Link  302 at Sun Apr  9 09:54:19 2023, MaxMem=  2684354560 cpu:              36.5 elap:               2.3
 (Enter /opt/gaussian/g16/l303.exe)
 DipDrv:  MaxL=1.
 Leave Link  303 at Sun Apr  9 09:54:20 2023, MaxMem=  2684354560 cpu:               4.4 elap:               0.3
 (Enter /opt/gaussian/g16/l401.exe)
 ExpMin= 9.52D-02 ExpMax= 6.07D+04 ExpMxC= 2.07D+03 IAcc=3 IRadAn=         5 AccDes= 0.00D+00
 Harris functional with IExCor= 1009 and IRadAn=       5 diagonalized for initial guess.
 HarFok:  IExCor= 1009 AccDes= 0.00D+00 IRadAn=         5 IDoV= 1 UseB2=F ITyADJ=14
 ICtDFT=  3500011 ScaDFX=  1.000000  1.000000  1.000000  1.000000
 FoFCou: FMM=F IPFlag=           0 FMFlag=      100000 FMFlg1=           0
         NFxFlg=           0 DoJE=T BraDBF=F KetDBF=T FulRan=T
         wScrn=  0.000000 ICntrl=       500 IOpCl=  0 I1Cent=   200000004 NGrid=           0
         NMat0=    1 NMatS0=      1 NMatT0=    0 NMatD0=    1 NMtDS0=    0 NMtDT0=    0
 Symmetry not used in FoFCou.
 Harris En= -1507.22599692384    
 JPrj=0 DoOrth=F DoCkMO=F.
 Leave Link  401 at Sun Apr  9 09:54:28 2023, MaxMem=  2684354560 cpu:             138.3 elap:               8.7
 (Enter /opt/gaussian/g16/l502.exe)
 Two-electron integral symmetry not used.
 Closed shell SCF:
 Using DIIS extrapolation, IDIIS=  1040.
 NGot=  2684354560 LenX=  2682275214 LenY=  2681246004
 Requested convergence on RMS density matrix=1.00D-08 within 128 cycles.
 Requested convergence on MAX density matrix=1.00D-06.
 Requested convergence on             energy=1.00D-06.
 No special actions if energy rises.
 Fock matrices will be formed incrementally for  20 cycles.
 Integral accuracy reduced to 1.0D-05 until final iterations.

 Cycle   1  Pass 0  IDiag  1:
 FoFJK:  IHMeth= 1 ICntrl=       0 DoSepK=F KAlg= 0 I1Cent=           0 FoldK=F
 IRaf= 770000000 NMat=       1 IRICut=       1 DoRegI=T DoRafI=F ISym2E= 0 IDoP0=0 IntGTp=1.
 FoFCou: FMM=F IPFlag=           0 FMFlag=      100000 FMFlg1=           0
         NFxFlg=           0 DoJE=F BraDBF=F KetDBF=F FulRan=T
         wScrn=  0.000000 ICntrl=         0 IOpCl=  0 I1Cent=           0 NGrid=           0
         NMat0=    1 NMatS0=      1 NMatT0=    0 NMatD0=    1 NMtDS0=    0 NMtDT0=    0
 Symmetry not used in FoFCou.
 E= -1507.12392578996    
 DIIS: error= 1.60D-02 at cycle   1 NSaved=   1.
 NSaved= 1 IEnMin= 1 EnMin= -1507.12392578996     IErMin= 1 ErrMin= 1.60D-02
 ErrMax= 1.60D-02  0.00D+00 EMaxC= 1.00D-01 BMatC= 1.02D+00 BMatP= 1.02D+00
 IDIUse=3 WtCom= 8.40D-01 WtEn= 1.60D-01
 Coeff-Com:  0.100D+01
 Coeff-En:   0.100D+01
 Coeff:      0.100D+01
 Gap=     0.300 Goal=   None    Shift=    0.000
 GapD=    0.300 DampG=1.000 DampE=0.500 DampFc=0.5000 IDamp=-1.
 Damping current iteration by 5.00D-01
 RMSDP=3.44D-03 MaxDP=8.64D-01              OVMax= 2.40D-01

 Cycle   2  Pass 0  IDiag  1:
 RMSU=  1.72D-03    CP:  1.01D+00
 E= -1507.46629180369     Delta-E=       -0.342366013731 Rises=F Damp=T
 DIIS: error= 4.46D-03 at cycle   2 NSaved=   2.
 NSaved= 2 IEnMin= 2 EnMin= -1507.46629180369     IErMin= 2 ErrMin= 4.46D-03
 ErrMax= 4.46D-03  0.00D+00 EMaxC= 1.00D-01 BMatC= 9.24D-02 BMatP= 1.02D+00
 IDIUse=3 WtCom= 9.55D-01 WtEn= 4.46D-02
 Coeff-Com:  0.671D-02 0.993D+00
 Coeff-En:   0.627D-01 0.937D+00
 Coeff:      0.921D-02 0.991D+00
 Gap=     0.328 Goal=   None    Shift=    0.000
 RMSDP=1.13D-03 MaxDP=2.78D-01 DE=-3.42D-01 OVMax= 1.90D-01

 Cycle   3  Pass 0  IDiag  1:
 RMSU=  9.72D-04    CP:  9.93D-01  6.64D-01
 E= -1507.83961151902     Delta-E=       -0.373319715326 Rises=F Damp=F
 DIIS: error= 5.47D-03 at cycle   3 NSaved=   3.
 NSaved= 3 IEnMin= 3 EnMin= -1507.83961151902     IErMin= 2 ErrMin= 4.46D-03
 ErrMax= 5.47D-03  0.00D+00 EMaxC= 1.00D-01 BMatC= 6.00D-02 BMatP= 9.24D-02
 IDIUse=3 WtCom= 9.45D-01 WtEn= 5.47D-02
 Coeff-Com: -0.753D-01 0.464D+00 0.611D+00
 Coeff-En:   0.000D+00 0.000D+00 0.100D+01
 Coeff:     -0.712D-01 0.439D+00 0.633D+00
 Gap=     0.220 Goal=   None    Shift=    0.000
 RMSDP=3.62D-04 MaxDP=3.03D-02 DE=-3.73D-01 OVMax= 7.62D-02

 Cycle   4  Pass 0  IDiag  1:
 RMSU=  3.31D-04    CP:  9.94D-01  7.38D-01  9.26D-01
 E= -1507.87942972900     Delta-E=       -0.039818209982 Rises=F Damp=F
 DIIS: error= 2.73D-03 at cycle   4 NSaved=   4.
 NSaved= 4 IEnMin= 4 EnMin= -1507.87942972900     IErMin= 4 ErrMin= 2.73D-03
 ErrMax= 2.73D-03  0.00D+00 EMaxC= 1.00D-01 BMatC= 1.20D-02 BMatP= 6.00D-02
 IDIUse=3 WtCom= 9.73D-01 WtEn= 2.73D-02
 Coeff-Com: -0.346D-01 0.967D-01 0.344D+00 0.594D+00
 Coeff-En:   0.000D+00 0.000D+00 0.139D+00 0.861D+00
 Coeff:     -0.337D-01 0.941D-01 0.338D+00 0.601D+00
 Gap=     0.220 Goal=   None    Shift=    0.000
 RMSDP=1.20D-04 MaxDP=1.05D-02 DE=-3.98D-02 OVMax= 1.85D-02

 Cycle   5  Pass 0  IDiag  1:
 RMSU=  7.84D-05    CP:  9.94D-01  7.39D-01  9.54D-01  7.38D-01
 E= -1507.88836693876     Delta-E=       -0.008937209753 Rises=F Damp=F
 DIIS: error= 3.18D-04 at cycle   5 NSaved=   5.
 NSaved= 5 IEnMin= 5 EnMin= -1507.88836693876     IErMin= 5 ErrMin= 3.18D-04
 ErrMax= 3.18D-04  0.00D+00 EMaxC= 1.00D-01 BMatC= 4.98D-04 BMatP= 1.20D-02
 IDIUse=3 WtCom= 9.97D-01 WtEn= 3.18D-03
 Coeff-Com: -0.946D-02 0.152D-01 0.118D+00 0.270D+00 0.606D+00
 Coeff-En:   0.000D+00 0.000D+00 0.000D+00 0.000D+00 0.100D+01
 Coeff:     -0.943D-02 0.151D-01 0.118D+00 0.269D+00 0.608D+00
 Gap=     0.220 Goal=   None    Shift=    0.000
 RMSDP=4.48D-05 MaxDP=9.96D-03 DE=-8.94D-03 OVMax= 4.51D-03

 Cycle   6  Pass 0  IDiag  1:
 RMSU=  3.23D-05    CP:  9.93D-01  7.24D-01  9.67D-01  7.62D-01  8.82D-01
 E= -1507.88876852429     Delta-E=       -0.000401585533 Rises=F Damp=F
 DIIS: error= 1.49D-04 at cycle   6 NSaved=   6.
 NSaved= 6 IEnMin= 6 EnMin= -1507.88876852429     IErMin= 6 ErrMin= 1.49D-04
 ErrMax= 1.49D-04  0.00D+00 EMaxC= 1.00D-01 BMatC= 5.78D-05 BMatP= 4.98D-04
 IDIUse=3 WtCom= 9.99D-01 WtEn= 1.49D-03
 Coeff-Com:  0.645D-03-0.565D-02 0.952D-02 0.384D-01 0.262D+00 0.695D+00
 Coeff-En:   0.000D+00 0.000D+00 0.000D+00 0.000D+00 0.000D+00 0.100D+01
 Coeff:      0.644D-03-0.564D-02 0.951D-02 0.383D-01 0.261D+00 0.696D+00
 Gap=     0.221 Goal=   None    Shift=    0.000
 RMSDP=1.81D-05 MaxDP=1.31D-03 DE=-4.02D-04 OVMax= 2.57D-03

 Cycle   7  Pass 0  IDiag  1:
 RMSU=  1.58D-05    CP:  9.93D-01  7.23D-01  9.72D-01  7.70D-01  9.58D-01
                    CP:  1.01D+00
 E= -1507.88884164033     Delta-E=       -0.000073116039 Rises=F Damp=F
 DIIS: error= 5.65D-05 at cycle   7 NSaved=   7.
 NSaved= 7 IEnMin= 7 EnMin= -1507.88884164033     IErMin= 7 ErrMin= 5.65D-05
 ErrMax= 5.65D-05  0.00D+00 EMaxC= 1.00D-01 BMatC= 9.57D-06 BMatP= 5.78D-05
 IDIUse=1 WtCom= 1.00D+00 WtEn= 0.00D+00
 Coeff-Com:  0.186D-02-0.506D-02-0.125D-01-0.267D-01 0.969D-02 0.282D+00
 Coeff-Com:  0.750D+00
 Coeff:      0.186D-02-0.506D-02-0.125D-01-0.267D-01 0.969D-02 0.282D+00
 Coeff:      0.750D+00
 Gap=     0.221 Goal=   None    Shift=    0.000
 RMSDP=1.54D-05 MaxDP=3.50D-03 DE=-7.31D-05 OVMax= 2.11D-03

 Cycle   8  Pass 0  IDiag  1:
 RMSU=  1.05D-05    CP:  9.93D-01  7.19D-01  9.75D-01  7.78D-01  1.02D+00
                    CP:  1.18D+00  1.21D+00
 E= -1507.88885565340     Delta-E=       -0.000014013073 Rises=F Damp=F
 DIIS: error= 3.51D-05 at cycle   8 NSaved=   8.
 NSaved= 8 IEnMin= 8 EnMin= -1507.88885565340     IErMin= 8 ErrMin= 3.51D-05
 ErrMax= 3.51D-05  0.00D+00 EMaxC= 1.00D-01 BMatC= 2.24D-06 BMatP= 9.57D-06
 IDIUse=1 WtCom= 1.00D+00 WtEn= 0.00D+00
 Coeff-Com:  0.835D-03-0.146D-02-0.723D-02-0.215D-01-0.441D-01 0.274D-02
 Coeff-Com:  0.363D+00 0.708D+00
 Coeff:      0.835D-03-0.146D-02-0.723D-02-0.215D-01-0.441D-01 0.274D-02
 Coeff:      0.363D+00 0.708D+00
 Gap=     0.221 Goal=   None    Shift=    0.000
 RMSDP=1.21D-05 MaxDP=1.16D-03 DE=-1.40D-05 OVMax= 6.33D-04

 Cycle   9  Pass 0  IDiag  1:
 RMSU=  7.09D-06    CP:  9.93D-01  7.17D-01  9.76D-01  7.78D-01  1.06D+00
                    CP:  1.27D+00  1.60D+00  1.52D+00
 E= -1507.88884827604     Delta-E=        0.000007377356 Rises=F Damp=F
 DIIS: error= 1.58D-05 at cycle   9 NSaved=   9.
 NSaved= 9 IEnMin= 8 EnMin= -1507.88885565340     IErMin= 9 ErrMin= 1.58D-05
 ErrMax= 1.58D-05  0.00D+00 EMaxC= 1.00D-01 BMatC= 3.21D-07 BMatP= 2.24D-06
 IDIUse=1 WtCom= 1.00D+00 WtEn= 0.00D+00
 Coeff-Com:  0.128D-03-0.529D-04-0.104D-02-0.562D-02-0.172D-01-0.307D-01
 Coeff-Com:  0.598D-01 0.275D+00 0.719D+00
 Coeff:      0.128D-03-0.529D-04-0.104D-02-0.562D-02-0.172D-01-0.307D-01
 Coeff:      0.598D-01 0.275D+00 0.719D+00
 Gap=     0.221 Goal=   None    Shift=    0.000
 RMSDP=1.44D-05 MaxDP=1.25D-03 DE= 7.38D-06 OVMax= 2.34D-04

 Cycle  10  Pass 0  IDiag  1:
 RMSU=  4.42D-06    CP:  9.93D-01  7.15D-01  9.77D-01  7.79D-01  1.09D+00
                    CP:  1.35D+00  1.97D+00  2.34D+00  2.09D+00
 E= -1507.88883575996     Delta-E=        0.000012516089 Rises=F Damp=F
 DIIS: error= 2.29D-05 at cycle  10 NSaved=  10.
 NSaved=10 IEnMin= 8 EnMin= -1507.88885565340     IErMin= 9 ErrMin= 1.58D-05
 ErrMax= 2.29D-05  0.00D+00 EMaxC= 1.00D-01 BMatC= 2.91D-07 BMatP= 3.21D-07
 IDIUse=1 WtCom= 1.00D+00 WtEn= 0.00D+00
 Coeff-Com:  0.114D-03-0.460D-04-0.901D-03-0.504D-02-0.155D-01-0.280D-01
 Coeff-Com:  0.530D-01 0.247D+00 0.654D+00 0.953D-01
 Coeff:      0.114D-03-0.460D-04-0.901D-03-0.504D-02-0.155D-01-0.280D-01
 Coeff:      0.530D-01 0.247D+00 0.654D+00 0.953D-01
 Gap=     0.221 Goal=   None    Shift=    0.000
 RMSDP=2.69D-06 MaxDP=1.75D-04 DE= 1.25D-05 OVMax= 8.01D-06

 Initial convergence to 1.0D-05 achieved.  Increase integral accuracy.
 Cycle  11  Pass 1  IDiag  1:
 E= -1507.88879647543     Delta-E=        0.000039284522 Rises=F Damp=F
 DIIS: error= 3.07D-04 at cycle   1 NSaved=   1.
 NSaved= 1 IEnMin= 1 EnMin= -1507.88879647543     IErMin= 1 ErrMin= 3.07D-04
 ErrMax= 3.07D-04  0.00D+00 EMaxC= 1.00D-01 BMatC= 8.08D-05 BMatP= 8.08D-05
 IDIUse=3 WtCom= 9.97D-01 WtEn= 3.07D-03
 Coeff-Com:  0.100D+01
 Coeff-En:   0.100D+01
 Coeff:      0.100D+01
 Gap=     0.221 Goal=   None    Shift=    0.000
 RMSDP=2.69D-06 MaxDP=1.75D-04 DE= 3.93D-05 OVMax= 7.98D-04

 Cycle  12  Pass 1  IDiag  1:
 RMSU=  4.00D-04    CP:  9.97D-01
 E= -1507.88884746645     Delta-E=       -0.000050991017 Rises=F Damp=F
 DIIS: error= 6.99D-06 at cycle   2 NSaved=   2.
 NSaved= 2 IEnMin= 2 EnMin= -1507.88884746645     IErMin= 2 ErrMin= 6.99D-06
 ErrMax= 6.99D-06  0.00D+00 EMaxC= 1.00D-01 BMatC= 7.96D-08 BMatP= 8.08D-05
 IDIUse=1 WtCom= 1.00D+00 WtEn= 0.00D+00
 Coeff-Com: -0.160D-01 0.102D+01
 Coeff:     -0.160D-01 0.102D+01
 Gap=     0.221 Goal=   None    Shift=    0.000
 RMSDP=1.43D-05 MaxDP=1.26D-03 DE=-5.10D-05 OVMax= 1.16D-04

 Cycle  13  Pass 1  IDiag  1:
 RMSU=  4.91D-06    CP:  9.97D-01  1.03D+00
 E= -1507.88884750811     Delta-E=       -0.000000041658 Rises=F Damp=F
 DIIS: error= 4.18D-06 at cycle   3 NSaved=   3.
 NSaved= 3 IEnMin= 3 EnMin= -1507.88884750811     IErMin= 3 ErrMin= 4.18D-06
 ErrMax= 4.18D-06  0.00D+00 EMaxC= 1.00D-01 BMatC= 6.90D-08 BMatP= 7.96D-08
 IDIUse=1 WtCom= 1.00D+00 WtEn= 0.00D+00
 Coeff-Com: -0.897D-02 0.530D+00 0.479D+00
 Coeff:     -0.897D-02 0.530D+00 0.479D+00
 Gap=     0.221 Goal=   None    Shift=    0.000
 RMSDP=4.37D-07 MaxDP=4.22D-05 DE=-4.17D-08 OVMax= 7.83D-05

 Cycle  14  Pass 1  IDiag  1:
 RMSU=  3.74D-07    CP:  9.97D-01  1.03D+00  1.02D+00
 E= -1507.88884756329     Delta-E=       -0.000000055185 Rises=F Damp=F
 DIIS: error= 1.17D-06 at cycle   4 NSaved=   4.
 NSaved= 4 IEnMin= 4 EnMin= -1507.88884756329     IErMin= 4 ErrMin= 1.17D-06
 ErrMax= 1.17D-06  0.00D+00 EMaxC= 1.00D-01 BMatC= 3.95D-09 BMatP= 6.90D-08
 IDIUse=1 WtCom= 1.00D+00 WtEn= 0.00D+00
 Coeff-Com: -0.107D-02 0.531D-01 0.191D+00 0.757D+00
 Coeff:     -0.107D-02 0.531D-01 0.191D+00 0.757D+00
 Gap=     0.221 Goal=   None    Shift=    0.000
 RMSDP=2.90D-07 MaxDP=1.82D-05 DE=-5.52D-08 OVMax= 2.36D-05

 Cycle  15  Pass 1  IDiag  1:
 RMSU=  1.40D-07    CP:  9.97D-01  1.03D+00  1.06D+00  9.90D-01
 E= -1507.88884756635     Delta-E=       -0.000000003059 Rises=F Damp=F
 DIIS: error= 5.02D-07 at cycle   5 NSaved=   5.
 NSaved= 5 IEnMin= 5 EnMin= -1507.88884756635     IErMin= 5 ErrMin= 5.02D-07
 ErrMax= 5.02D-07  0.00D+00 EMaxC= 1.00D-01 BMatC= 9.77D-10 BMatP= 3.95D-09
 IDIUse=1 WtCom= 1.00D+00 WtEn= 0.00D+00
 Coeff-Com:  0.430D-03-0.310D-01 0.501D-01 0.420D+00 0.560D+00
 Coeff:      0.430D-03-0.310D-01 0.501D-01 0.420D+00 0.560D+00
 Gap=     0.221 Goal=   None    Shift=    0.000
 RMSDP=7.42D-08 MaxDP=4.28D-06 DE=-3.06D-09 OVMax= 7.23D-06

 Cycle  16  Pass 1  IDiag  1:
 RMSU=  4.46D-08    CP:  9.97D-01  1.03D+00  1.06D+00  1.04D+00  1.03D+00
 E= -1507.88884756734     Delta-E=       -0.000000000987 Rises=F Damp=F
 DIIS: error= 1.06D-07 at cycle   6 NSaved=   6.
 NSaved= 6 IEnMin= 6 EnMin= -1507.88884756734     IErMin= 6 ErrMin= 1.06D-07
 ErrMax= 1.06D-07  0.00D+00 EMaxC= 1.00D-01 BMatC= 3.39D-11 BMatP= 9.77D-10
 IDIUse=1 WtCom= 1.00D+00 WtEn= 0.00D+00
 Coeff-Com:  0.212D-03-0.135D-01-0.911D-03 0.642D-01 0.170D+00 0.780D+00
 Coeff:      0.212D-03-0.135D-01-0.911D-03 0.642D-01 0.170D+00 0.780D+00
 Gap=     0.221 Goal=   None    Shift=    0.000
 RMSDP=1.91D-08 MaxDP=1.38D-06 DE=-9.87D-10 OVMax= 2.40D-06

 Cycle  17  Pass 1  IDiag  1:
 RMSU=  1.26D-08    CP:  9.97D-01  1.03D+00  1.06D+00  1.06D+00  1.12D+00
                    CP:  1.05D+00
 E= -1507.88884756736     Delta-E=       -0.000000000020 Rises=F Damp=F
 DIIS: error= 4.27D-08 at cycle   7 NSaved=   7.
 NSaved= 7 IEnMin= 7 EnMin= -1507.88884756736     IErMin= 7 ErrMin= 4.27D-08
 ErrMax= 4.27D-08  0.00D+00 EMaxC= 1.00D-01 BMatC= 9.09D-12 BMatP= 3.39D-11
 IDIUse=1 WtCom= 1.00D+00 WtEn= 0.00D+00
 Coeff-Com: -0.480D-05 0.118D-02-0.121D-01-0.669D-01-0.452D-01 0.360D+00
 Coeff-Com:  0.763D+00
 Coeff:     -0.480D-05 0.118D-02-0.121D-01-0.669D-01-0.452D-01 0.360D+00
 Coeff:      0.763D+00
 Gap=     0.221 Goal=   None    Shift=    0.000
 RMSDP=9.29D-09 MaxDP=6.13D-07 DE=-2.00D-11 OVMax= 1.67D-06

 SCF Done:  E(RM062X) =  -1507.88884757     A.U. after   17 cycles
            NFock= 17  Conv=0.93D-08     -V/T= 2.0038
 KE= 1.502159836509D+03 PE=-8.393803193633D+03 EE= 2.956343948456D+03
 Leave Link  502 at Sun Apr  9 10:11:33 2023, MaxMem=  2684354560 cpu:           16390.4 elap:            1024.7
 (Enter /opt/gaussian/g16/l601.exe)
 Copying SCF densities to generalized density rwf, IOpCl= 0 IROHF=0.

 **********************************************************************

            Population analysis using the SCF density.

 **********************************************************************

 Alpha  occ. eigenvalues --  -89.90780 -19.64135 -19.63546 -19.62266 -19.61574
 Alpha  occ. eigenvalues --  -19.60128 -14.79385 -14.76356 -10.64817 -10.64451
 Alpha  occ. eigenvalues --  -10.63247 -10.60118 -10.60080 -10.59887 -10.58579
 Alpha  occ. eigenvalues --  -10.57013 -10.55852 -10.55190 -10.54417 -10.53890
 Alpha  occ. eigenvalues --  -10.53849 -10.53763 -10.52989 -10.52969  -8.26784
 Alpha  occ. eigenvalues --   -6.18719  -6.18489  -6.18307  -1.19021  -1.16970
 Alpha  occ. eigenvalues --   -1.16305  -1.16052  -1.14268  -1.08109  -1.00150
 Alpha  occ. eigenvalues --   -0.92497  -0.91541  -0.89194  -0.88305  -0.87527
 Alpha  occ. eigenvalues --   -0.85818  -0.81693  -0.78615  -0.75298  -0.74774
 Alpha  occ. eigenvalues --   -0.72959  -0.70096  -0.68074  -0.66568  -0.65486
 Alpha  occ. eigenvalues --   -0.63697  -0.62222  -0.61189  -0.59243  -0.59087
 Alpha  occ. eigenvalues --   -0.57623  -0.56451  -0.55537  -0.55211  -0.54126
 Alpha  occ. eigenvalues --   -0.53372  -0.53064  -0.52347  -0.51155  -0.50978
 Alpha  occ. eigenvalues --   -0.50558  -0.50074  -0.49230  -0.48808  -0.48488
 Alpha  occ. eigenvalues --   -0.48428  -0.47884  -0.46893  -0.46341  -0.46105
 Alpha  occ. eigenvalues --   -0.45583  -0.44834  -0.44204  -0.43734  -0.42956
 Alpha  occ. eigenvalues --   -0.42696  -0.42196  -0.41492  -0.39918  -0.38598
 Alpha  occ. eigenvalues --   -0.36352  -0.36211  -0.35241  -0.34359  -0.33516
 Alpha  occ. eigenvalues --   -0.32822  -0.32492  -0.31614  -0.29821  -0.24527
 Alpha virt. eigenvalues --   -0.02396   0.00590   0.04844   0.05411   0.05882
 Alpha virt. eigenvalues --    0.06518   0.06682   0.08011   0.08334   0.08869
 Alpha virt. eigenvalues --    0.09180   0.09682   0.10274   0.11057   0.11237
 Alpha virt. eigenvalues --    0.12072   0.12463   0.12646   0.12952   0.13682
 Alpha virt. eigenvalues --    0.13864   0.14039   0.14241   0.14763   0.15130
 Alpha virt. eigenvalues --    0.15710   0.16200   0.16706   0.17412   0.18185
 Alpha virt. eigenvalues --    0.18431   0.19052   0.19338   0.19691   0.19938
 Alpha virt. eigenvalues --    0.20632   0.21080   0.21626   0.21711   0.22179
 Alpha virt. eigenvalues --    0.22860   0.23301   0.23719   0.24329   0.24901
 Alpha virt. eigenvalues --    0.24962   0.25464   0.26069   0.26563   0.26727
 Alpha virt. eigenvalues --    0.26976   0.27845   0.27992   0.28429   0.28767
 Alpha virt. eigenvalues --    0.28980   0.29951   0.30267   0.30842   0.31561
 Alpha virt. eigenvalues --    0.31831   0.31883   0.32601   0.32960   0.33159
 Alpha virt. eigenvalues --    0.33549   0.34488   0.34745   0.35362   0.35767
 Alpha virt. eigenvalues --    0.36682   0.36830   0.37237   0.37801   0.38049
 Alpha virt. eigenvalues --    0.38813   0.39456   0.39670   0.40086   0.40328
 Alpha virt. eigenvalues --    0.40542   0.41146   0.41637   0.41906   0.42201
 Alpha virt. eigenvalues --    0.42502   0.42548   0.43390   0.43608   0.43732
 Alpha virt. eigenvalues --    0.44121   0.44743   0.45111   0.45413   0.45652
 Alpha virt. eigenvalues --    0.46161   0.46303   0.46757   0.47087   0.47647
 Alpha virt. eigenvalues --    0.48100   0.48491   0.48872   0.49195   0.49465
 Alpha virt. eigenvalues --    0.49705   0.50123   0.50249   0.50552   0.51004
 Alpha virt. eigenvalues --    0.51326   0.51365   0.51650   0.52323   0.52801
 Alpha virt. eigenvalues --    0.53227   0.53352   0.53595   0.54114   0.54513
 Alpha virt. eigenvalues --    0.54786   0.55313   0.55998   0.56265   0.57354
 Alpha virt. eigenvalues --    0.57527   0.58170   0.58596   0.59039   0.59381
 Alpha virt. eigenvalues --    0.59995   0.60478   0.60849   0.61525   0.61664
 Alpha virt. eigenvalues --    0.62371   0.62826   0.63158   0.64592   0.64607
 Alpha virt. eigenvalues --    0.64917   0.65612   0.66974   0.67332   0.67843
 Alpha virt. eigenvalues --    0.68364   0.68565   0.69030   0.69797   0.70858
 Alpha virt. eigenvalues --    0.71156   0.72308   0.72680   0.73486   0.73893
 Alpha virt. eigenvalues --    0.74470   0.74818   0.75726   0.76994   0.78004
 Alpha virt. eigenvalues --    0.78416   0.78586   0.79810   0.80359   0.81011
 Alpha virt. eigenvalues --    0.81404   0.82092   0.82843   0.83061   0.83588
 Alpha virt. eigenvalues --    0.84834   0.85116   0.86216   0.86385   0.86868
 Alpha virt. eigenvalues --    0.87697   0.87988   0.88254   0.88665   0.89730
 Alpha virt. eigenvalues --    0.90954   0.91436   0.92085   0.92470   0.93700
 Alpha virt. eigenvalues --    0.94015   0.94573   0.95718   0.96212   0.96538
 Alpha virt. eigenvalues --    0.97667   0.97790   0.98167   0.98575   0.98931
 Alpha virt. eigenvalues --    0.99855   1.00344   1.02739   1.02990   1.03776
 Alpha virt. eigenvalues --    1.03990   1.05055   1.05369   1.05435   1.06307
 Alpha virt. eigenvalues --    1.06847   1.07995   1.08391   1.09486   1.09983
 Alpha virt. eigenvalues --    1.10079   1.11074   1.11670   1.12349   1.12499
 Alpha virt. eigenvalues --    1.13187   1.13935   1.15363   1.15541   1.15963
 Alpha virt. eigenvalues --    1.16500   1.17053   1.18015   1.18441   1.19344
 Alpha virt. eigenvalues --    1.21202   1.21744   1.21824   1.22366   1.22987
 Alpha virt. eigenvalues --    1.23657   1.25752   1.26092   1.27278   1.27393
 Alpha virt. eigenvalues --    1.28638   1.29009   1.30265   1.30931   1.31695
 Alpha virt. eigenvalues --    1.33183   1.33731   1.34251   1.34663   1.35250
 Alpha virt. eigenvalues --    1.36246   1.37846   1.38391   1.39816   1.40288
 Alpha virt. eigenvalues --    1.40768   1.41437   1.41932   1.42160   1.43465
 Alpha virt. eigenvalues --    1.44564   1.45531   1.46785   1.48810   1.49425
 Alpha virt. eigenvalues --    1.49964   1.51483   1.52384   1.52665   1.53093
 Alpha virt. eigenvalues --    1.53969   1.54359   1.54754   1.55227   1.56130
 Alpha virt. eigenvalues --    1.56514   1.56758   1.56917   1.57230   1.57725
 Alpha virt. eigenvalues --    1.58061   1.58584   1.59326   1.60000   1.60135
 Alpha virt. eigenvalues --    1.60601   1.60946   1.61339   1.61603   1.62434
 Alpha virt. eigenvalues --    1.62682   1.63351   1.63598   1.63851   1.64802
 Alpha virt. eigenvalues --    1.66042   1.66226   1.66946   1.67404   1.68467
 Alpha virt. eigenvalues --    1.68958   1.69681   1.70281   1.70469   1.70638
 Alpha virt. eigenvalues --    1.72261   1.72543   1.73398   1.73757   1.74194
 Alpha virt. eigenvalues --    1.74767   1.75690   1.76739   1.77599   1.77999
 Alpha virt. eigenvalues --    1.78387   1.79100   1.79546   1.80373   1.81629
 Alpha virt. eigenvalues --    1.82105   1.83257   1.83457   1.83806   1.84238
 Alpha virt. eigenvalues --    1.85221   1.86036   1.86195   1.87647   1.87968
 Alpha virt. eigenvalues --    1.88498   1.89091   1.89945   1.90147   1.90494
 Alpha virt. eigenvalues --    1.91787   1.93145   1.93678   1.94168   1.94780
 Alpha virt. eigenvalues --    1.94872   1.95853   1.96487   1.97248   1.97904
 Alpha virt. eigenvalues --    1.98817   1.99631   1.99800   2.00622   2.00964
 Alpha virt. eigenvalues --    2.01794   2.02733   2.03523   2.04609   2.05452
 Alpha virt. eigenvalues --    2.05797   2.06529   2.07961   2.08264   2.08851
 Alpha virt. eigenvalues --    2.09267   2.09991   2.10517   2.10997   2.11881
 Alpha virt. eigenvalues --    2.12283   2.12822   2.13784   2.14127   2.15515
 Alpha virt. eigenvalues --    2.16092   2.16533   2.17156   2.18807   2.19292
 Alpha virt. eigenvalues --    2.19672   2.20587   2.20744   2.21735   2.22761
 Alpha virt. eigenvalues --    2.23701   2.24231   2.25414   2.26234   2.26843
 Alpha virt. eigenvalues --    2.26910   2.27356   2.28979   2.29142   2.29501
 Alpha virt. eigenvalues --    2.30083   2.30633   2.31269   2.31698   2.32211
 Alpha virt. eigenvalues --    2.33268   2.33851   2.34489   2.35134   2.35552
 Alpha virt. eigenvalues --    2.36004   2.36713   2.38150   2.38962   2.39357
 Alpha virt. eigenvalues --    2.40574   2.41284   2.42355   2.42989   2.43506
 Alpha virt. eigenvalues --    2.44983   2.45892   2.46659   2.46867   2.47157
 Alpha virt. eigenvalues --    2.48353   2.48933   2.49281   2.50050   2.51055
 Alpha virt. eigenvalues --    2.51550   2.52869   2.53975   2.54993   2.55353
 Alpha virt. eigenvalues --    2.56418   2.56801   2.56975   2.57668   2.58400
 Alpha virt. eigenvalues --    2.59079   2.59339   2.59594   2.60611   2.61150
 Alpha virt. eigenvalues --    2.61785   2.62229   2.62887   2.64204   2.64347
 Alpha virt. eigenvalues --    2.65190   2.66117   2.66469   2.67050   2.67928
 Alpha virt. eigenvalues --    2.68168   2.68707   2.69973   2.70359   2.70676
 Alpha virt. eigenvalues --    2.71073   2.71895   2.72759   2.72928   2.73848
 Alpha virt. eigenvalues --    2.74322   2.74665   2.76056   2.77114   2.77551
 Alpha virt. eigenvalues --    2.78166   2.78814   2.79572   2.80384   2.81394
 Alpha virt. eigenvalues --    2.81651   2.82571   2.82655   2.83592   2.84872
 Alpha virt. eigenvalues --    2.85336   2.86986   2.87325   2.88108   2.88163
 Alpha virt. eigenvalues --    2.89112   2.89958   2.91463   2.92145   2.93231
 Alpha virt. eigenvalues --    2.94014   2.94202   2.95123   2.95931   2.96260
 Alpha virt. eigenvalues --    2.97066   2.97576   2.98111   2.99475   3.00009
 Alpha virt. eigenvalues --    3.00834   3.01617   3.01845   3.02770   3.03603
 Alpha virt. eigenvalues --    3.03938   3.05107   3.05404   3.06790   3.07181
 Alpha virt. eigenvalues --    3.07865   3.08290   3.09020   3.09202   3.09922
 Alpha virt. eigenvalues --    3.10266   3.10831   3.12261   3.12839   3.13032
 Alpha virt. eigenvalues --    3.13327   3.13998   3.15436   3.15811   3.16466
 Alpha virt. eigenvalues --    3.16978   3.17207   3.17899   3.18824   3.19085
 Alpha virt. eigenvalues --    3.20162   3.20517   3.20903   3.21848   3.22610
 Alpha virt. eigenvalues --    3.23494   3.23751   3.24067   3.24679   3.25406
 Alpha virt. eigenvalues --    3.25687   3.26182   3.27345   3.27437   3.28042
 Alpha virt. eigenvalues --    3.28063   3.29166   3.29810   3.30553   3.31433
 Alpha virt. eigenvalues --    3.31982   3.32445   3.32932   3.33441   3.33995
 Alpha virt. eigenvalues --    3.34553   3.35074   3.35829   3.35992   3.36977
 Alpha virt. eigenvalues --    3.37258   3.37655   3.38862   3.39304   3.39741
 Alpha virt. eigenvalues --    3.40023   3.40385   3.41592   3.42053   3.42452
 Alpha virt. eigenvalues --    3.42668   3.43900   3.44911   3.45270   3.45923
 Alpha virt. eigenvalues --    3.46762   3.47102   3.47541   3.48255   3.49105
 Alpha virt. eigenvalues --    3.49530   3.49929   3.50533   3.50923   3.52378
 Alpha virt. eigenvalues --    3.54052   3.54847   3.55329   3.56051   3.56597
 Alpha virt. eigenvalues --    3.57125   3.58299   3.58607   3.59129   3.60161
 Alpha virt. eigenvalues --    3.60750   3.61680   3.64000   3.64558   3.65163
 Alpha virt. eigenvalues --    3.65920   3.66728   3.67929   3.68976   3.69555
 Alpha virt. eigenvalues --    3.70527   3.71889   3.72167   3.72702   3.74621
 Alpha virt. eigenvalues --    3.75758   3.76213   3.76593   3.77259   3.78217
 Alpha virt. eigenvalues --    3.79139   3.80272   3.80717   3.82251   3.83193
 Alpha virt. eigenvalues --    3.83637   3.85165   3.86422   3.89141   3.89250
 Alpha virt. eigenvalues --    3.90279   3.91037   3.91549   3.92946   3.93854
 Alpha virt. eigenvalues --    3.93956   3.95645   3.97742   3.99383   3.99786
 Alpha virt. eigenvalues --    4.01258   4.02136   4.02745   4.05273   4.06365
 Alpha virt. eigenvalues --    4.07318   4.08108   4.09468   4.10626   4.11169
 Alpha virt. eigenvalues --    4.12917   4.13235   4.14397   4.14664   4.16448
 Alpha virt. eigenvalues --    4.20023   4.20918   4.22134   4.22553   4.22990
 Alpha virt. eigenvalues --    4.25549   4.26859   4.28078   4.28602   4.28941
 Alpha virt. eigenvalues --    4.30764   4.32858   4.32970   4.37153   4.39188
 Alpha virt. eigenvalues --    4.40876   4.41138   4.41839   4.42279   4.44614
 Alpha virt. eigenvalues --    4.46054   4.46565   4.47521   4.49708   4.50814
 Alpha virt. eigenvalues --    4.51339   4.51850   4.53046   4.54615   4.55287
 Alpha virt. eigenvalues --    4.58477   4.63794   4.66419   4.68380   4.69073
 Alpha virt. eigenvalues --    4.70874   4.72528   4.73775   4.74478   4.75005
 Alpha virt. eigenvalues --    4.76830   4.78437   4.79701   4.81617   4.82729
 Alpha virt. eigenvalues --    4.83629   4.85134   4.86655   4.90341   4.91918
 Alpha virt. eigenvalues --    4.92060   4.92693   4.95053   4.95365   4.97857
 Alpha virt. eigenvalues --    4.98276   4.99326   5.01916   5.02486   5.03772
 Alpha virt. eigenvalues --    5.07949   5.09607   5.12089   5.16921   5.20172
 Alpha virt. eigenvalues --    5.22109   5.22282   5.23828   5.24056   5.27014
 Alpha virt. eigenvalues --    5.28868   5.30072   5.30977   5.31904   5.36604
 Alpha virt. eigenvalues --    5.40160   5.43019   5.45615   5.45821   5.47159
 Alpha virt. eigenvalues --    5.49896   5.50744   5.52469   5.56010   5.56876
 Alpha virt. eigenvalues --    5.62420   5.62951   5.72583   5.75504   5.76338
 Alpha virt. eigenvalues --    5.78264   5.78911   5.82071   5.82494   5.84296
 Alpha virt. eigenvalues --    5.85534   5.86381   5.88337   5.91638   5.93829
 Alpha virt. eigenvalues --    5.96429   5.98332   6.06374   6.18973   6.20308
 Alpha virt. eigenvalues --    6.23663   6.26260   6.27615   6.31477   6.36639
 Alpha virt. eigenvalues --    6.39362   6.43526   6.45876   6.51336   6.51592
 Alpha virt. eigenvalues --    6.55139   6.57619   6.69827   6.71095   6.73471
 Alpha virt. eigenvalues --    6.76304   6.79944   6.84150   6.85169   6.85708
 Alpha virt. eigenvalues --    6.86425   6.90752   6.99589   7.00578   7.06304
 Alpha virt. eigenvalues --    7.07885   7.09265   7.09605   7.16938   7.24901
 Alpha virt. eigenvalues --    7.25050   7.32192   8.99637   9.41079   9.53600
 Alpha virt. eigenvalues --   20.07564  22.31586  22.45365  22.51700  22.55888
 Alpha virt. eigenvalues --   22.61916  22.65745  22.68804  22.70838  22.80435
 Alpha virt. eigenvalues --   22.84308  22.95541  22.97234  23.06670  23.12788
 Alpha virt. eigenvalues --   23.21024  23.33615  32.10381  33.16086  44.13069
 Alpha virt. eigenvalues --   44.16727  44.21800  44.25546  44.50824
          Condensed to atoms (all electrons):
               1          2          3          4          5          6
     1  C    5.111740   0.423845   0.416744  -0.007092  -0.000072  -0.000378
     2  H    0.423845   0.509827  -0.023009  -0.001115   0.000238  -0.000003
     3  H    0.416744  -0.023009   0.542123   0.001844  -0.000003  -0.000007
     4  C   -0.007092  -0.001115   0.001844   5.355446   0.483905   0.260152
     5  H   -0.000072   0.000238  -0.000003   0.483905   0.536542  -0.031786
     6  O   -0.000378  -0.000003  -0.000007   0.260152  -0.031786   8.040452
     7  H   -0.000059  -0.000004   0.000005  -0.036541  -0.013836   0.286825
     8  C    0.009188   0.013106  -0.009979   0.000300  -0.057077  -0.050312
     9  H    0.009523   0.000122  -0.002111  -0.101643   0.001734   0.003856
    10  O    0.007145  -0.000373   0.000262  -0.036158   0.001469  -0.008480
    11  H   -0.001292  -0.000129   0.000473   0.014997  -0.000758  -0.000463
    12  C   -0.003606  -0.000151   0.000626   0.072506  -0.085886  -0.030605
    13  H   -0.000286   0.000019   0.000127  -0.091216   0.006663   0.009381
    14  C    0.173236  -0.050033  -0.042414   0.103934   0.012100   0.006777
    15  H   -0.073715  -0.006994  -0.002863  -0.008165   0.000022   0.000100
    16  O   -0.032259   0.000969   0.005263  -0.067809   0.001035   0.005308
    17  N    0.000102  -0.000053  -0.000034   0.007728  -0.012155  -0.002130
    18  C   -0.000482   0.000035  -0.000002  -0.008173   0.001004   0.002318
    19  H   -0.000223  -0.000073   0.000051  -0.013633  -0.001963   0.000942
    20  C    0.000015   0.000000  -0.000002   0.007277   0.004444  -0.001041
    21  H    0.000004   0.000000  -0.000000   0.000076   0.000060  -0.000013
    22  C   -0.000008  -0.000000   0.000000  -0.000121  -0.000153  -0.000029
    23  H   -0.000000   0.000000  -0.000000   0.000017   0.000004  -0.000000
    24  H   -0.000000  -0.000000   0.000000  -0.000201  -0.000096   0.000003
    25  C   -0.000060  -0.000004   0.000001  -0.004997  -0.000185  -0.000045
    26  C   -0.000235   0.000034  -0.000005   0.013849  -0.000909  -0.005585
    27  H   -0.000013   0.000001  -0.000000   0.000644  -0.000095  -0.000118
    28  C    0.000000  -0.000000  -0.000000   0.000011   0.000002  -0.000011
    29  O   -0.000000   0.000000  -0.000000   0.000006   0.000000  -0.000000
    30  N   -0.000000   0.000000   0.000000   0.000000   0.000000  -0.000000
    31  H   -0.000000   0.000000   0.000000   0.000000   0.000000  -0.000000
    32  H    0.000000   0.000000  -0.000000  -0.000000   0.000000   0.000000
    33  C    0.000001  -0.000000   0.000000  -0.000152  -0.000358  -0.015471
    34  C    0.000001  -0.000000  -0.000000   0.000512   0.000280   0.008857
    35  C    0.000000   0.000000  -0.000000  -0.000240   0.000097   0.000523
    36  C   -0.000000   0.000000   0.000000   0.000001   0.000001   0.000002
    37  C   -0.000000   0.000000   0.000000   0.000068   0.000004  -0.000036
    38  O   -0.000000   0.000000  -0.000000   0.001241   0.000046  -0.017845
    39  S   -0.000000  -0.000000  -0.000000   0.000242   0.000009   0.000465
    40  H   -0.000000   0.000000  -0.000000   0.000147   0.000026   0.000104
    41  H   -0.000004   0.000000  -0.000000  -0.000392   0.000493   0.011965
    42  H    0.000000   0.000000  -0.000000   0.000000   0.000000  -0.000000
    43  H    0.000000  -0.000000  -0.000000  -0.000000  -0.000000  -0.000000
    44  H   -0.000000  -0.000000  -0.000000   0.000000  -0.000000   0.000000
    45  H   -0.000000   0.000000   0.000000   0.000011   0.000002   0.000007
    46  H    0.000000  -0.000000  -0.000000   0.000003   0.000001   0.000029
    47  H    0.379042  -0.021950  -0.026256   0.000765  -0.000257   0.000025
    48  H    0.000000   0.000000  -0.000000  -0.000008   0.000002   0.000316
               7          8          9         10         11         12
     1  C   -0.000059   0.009188   0.009523   0.007145  -0.001292  -0.003606
     2  H   -0.000004   0.013106   0.000122  -0.000373  -0.000129  -0.000151
     3  H    0.000005  -0.009979  -0.002111   0.000262   0.000473   0.000626
     4  C   -0.036541   0.000300  -0.101643  -0.036158   0.014997   0.072506
     5  H   -0.013836  -0.057077   0.001734   0.001469  -0.000758  -0.085886
     6  O    0.286825  -0.050312   0.003856  -0.008480  -0.000463  -0.030605
     7  H    0.383942   0.011859  -0.000433  -0.000562   0.000195   0.003008
     8  C    0.011859   5.427725   0.513993   0.294291  -0.048023  -0.037581
     9  H   -0.000433   0.513993   0.584256  -0.054980  -0.007235   0.012537
    10  O   -0.000562   0.294291  -0.054980   7.997426   0.295319  -0.028655
    11  H    0.000195  -0.048023  -0.007235   0.295319   0.432211  -0.001219
    12  C    0.003008  -0.037581   0.012537  -0.028655  -0.001219   5.460435
    13  H   -0.001391   0.016766   0.002669   0.015445  -0.001149   0.440808
    14  C   -0.001042   0.050506  -0.125050  -0.058220   0.002566  -0.086784
    15  H    0.000075  -0.042127   0.010974  -0.001286   0.003427  -0.001154
    16  O    0.000111  -0.031943   0.005370   0.008657   0.000014   0.254172
    17  N    0.004628   0.000759  -0.000776  -0.000084   0.000019   0.220175
    18  C    0.000856  -0.003255  -0.000208  -0.000220   0.000009  -0.080465
    19  H    0.000360   0.001338   0.000006  -0.000003   0.000004   0.015999
    20  C   -0.001563  -0.000893   0.000024   0.000005  -0.000001   0.009133
    21  H   -0.000018   0.000001   0.000000   0.000000  -0.000000   0.000097
    22  C    0.000289   0.000002  -0.000003  -0.000002   0.000000  -0.010194
    23  H   -0.000004   0.000000   0.000000   0.000000  -0.000000   0.000014
    24  H    0.000228   0.000017  -0.000000   0.000000   0.000000   0.001080
    25  C    0.000503  -0.000569  -0.000003  -0.000033  -0.000000  -0.015871
    26  C   -0.000267  -0.004065  -0.000081  -0.000531  -0.000036  -0.059840
    27  H    0.000066  -0.000045  -0.000008  -0.000112   0.000004  -0.002911
    28  C    0.000027   0.000003   0.000000   0.000000  -0.000000  -0.000451
    29  O    0.000003   0.000000   0.000000  -0.000000  -0.000000   0.000346
    30  N    0.000000  -0.000000  -0.000000  -0.000000  -0.000000  -0.000003
    31  H   -0.000000  -0.000000   0.000000  -0.000000  -0.000000  -0.000006
    32  H   -0.000000  -0.000000  -0.000000   0.000000  -0.000000  -0.000010
    33  C    0.004316   0.000545   0.000013  -0.000702   0.000046   0.000039
    34  C   -0.005889   0.000000  -0.000018   0.000011   0.000001  -0.000071
    35  C    0.000863  -0.000060  -0.000000   0.000000  -0.000000   0.000444
    36  C   -0.000008  -0.000000  -0.000000  -0.000000  -0.000000   0.000005
    37  C   -0.000276  -0.000001   0.000000   0.000000  -0.000000  -0.000595
    38  O    0.025003  -0.000169   0.000002  -0.000001  -0.000000  -0.000371
    39  S   -0.001385  -0.000034   0.000001   0.000003  -0.000001  -0.000334
    40  H   -0.001221  -0.000023   0.000000   0.000013  -0.000001   0.000002
    41  H   -0.009378  -0.000958   0.000002   0.002159  -0.000147  -0.000048
    42  H   -0.000000   0.000000  -0.000000   0.000000  -0.000000   0.000001
    43  H    0.000001   0.000000  -0.000000   0.000000   0.000000   0.000001
    44  H   -0.000000   0.000000  -0.000000   0.000000   0.000000  -0.000000
    45  H   -0.000027   0.000000   0.000000  -0.000000  -0.000000  -0.000045
    46  H   -0.000095   0.000001  -0.000000  -0.000000   0.000000   0.000079
    47  H    0.000023  -0.013053   0.000733   0.000198   0.000153  -0.001055
    48  H    0.000235  -0.000017   0.000001   0.000005  -0.000002   0.000006
              13         14         15         16         17         18
     1  C   -0.000286   0.173236  -0.073715  -0.032259   0.000102  -0.000482
     2  H    0.000019  -0.050033  -0.006994   0.000969  -0.000053   0.000035
     3  H    0.000127  -0.042414  -0.002863   0.005263  -0.000034  -0.000002
     4  C   -0.091216   0.103934  -0.008165  -0.067809   0.007728  -0.008173
     5  H    0.006663   0.012100   0.000022   0.001035  -0.012155   0.001004
     6  O    0.009381   0.006777   0.000100   0.005308  -0.002130   0.002318
     7  H   -0.001391  -0.001042   0.000075   0.000111   0.004628   0.000856
     8  C    0.016766   0.050506  -0.042127  -0.031943   0.000759  -0.003255
     9  H    0.002669  -0.125050   0.010974   0.005370  -0.000776  -0.000208
    10  O    0.015445  -0.058220  -0.001286   0.008657  -0.000084  -0.000220
    11  H   -0.001149   0.002566   0.003427   0.000014   0.000019   0.000009
    12  C    0.440808  -0.086784  -0.001154   0.254172   0.220175  -0.080465
    13  H    0.521121  -0.011792   0.006465  -0.033052  -0.056833   0.014049
    14  C   -0.011792   5.379323   0.416804   0.199514   0.013396  -0.000730
    15  H    0.006465   0.416804   0.614511  -0.036740  -0.001212   0.000223
    16  O   -0.033052   0.199514  -0.036740   8.069605  -0.075283   0.010445
    17  N   -0.056833   0.013396  -0.001212  -0.075283   6.526798   0.304786
    18  C    0.014049  -0.000730   0.000223   0.010445   0.304786   5.049694
    19  H    0.001130  -0.002780   0.000165   0.010592  -0.047918   0.408119
    20  C   -0.000500   0.000459   0.000001  -0.000948  -0.087032   0.538803
    21  H    0.000004  -0.000003  -0.000000  -0.000067   0.004487  -0.031462
    22  C    0.000205  -0.000041   0.000001   0.000511  -0.003868  -0.023050
    23  H   -0.000004  -0.000000   0.000000  -0.000004  -0.001356   0.004536
    24  H   -0.000041   0.000003   0.000000   0.000033   0.012510   0.006739
    25  C    0.008136   0.000221   0.000021  -0.001589  -0.079849   0.051621
    26  C   -0.018618   0.000135  -0.000459   0.001505   0.343186  -0.179765
    27  H   -0.000909  -0.000007  -0.000025   0.000817  -0.035282   0.007615
    28  C    0.000029  -0.000006  -0.000000   0.000014   0.004078   0.003293
    29  O   -0.000039  -0.000000   0.000000  -0.000001  -0.000314   0.000341
    30  N    0.000000   0.000000  -0.000000  -0.000000  -0.000422  -0.000120
    31  H    0.000000  -0.000000  -0.000000   0.000000   0.000019  -0.000009
    32  H    0.000001   0.000000  -0.000000   0.000000   0.000041   0.000310
    33  C   -0.000389  -0.000069   0.000000   0.000000   0.000115  -0.000004
    34  C    0.000414   0.000058  -0.000000   0.000063   0.006023  -0.001667
    35  C   -0.000109  -0.000000  -0.000000  -0.000014  -0.005738   0.002622
    36  C    0.000003   0.000000  -0.000000  -0.000000  -0.000281   0.000469
    37  C    0.000018  -0.000002  -0.000000  -0.000002  -0.001743   0.000645
    38  O   -0.000267   0.000009  -0.000000   0.000000   0.000103   0.002472
    39  S    0.000980   0.000006   0.000000   0.000001   0.000038   0.000011
    40  H    0.000027   0.000002  -0.000000   0.000000  -0.000003  -0.000010
    41  H    0.000284   0.000131  -0.000002  -0.000004  -0.000086   0.000079
    42  H    0.000000   0.000000  -0.000000  -0.000000   0.000017  -0.000094
    43  H   -0.000000  -0.000000   0.000000   0.000000   0.000022   0.000002
    44  H   -0.000000   0.000000  -0.000000   0.000000   0.000002   0.000005
    45  H    0.000002  -0.000000   0.000000  -0.000000  -0.000364   0.000466
    46  H    0.000012   0.000000   0.000000   0.000000   0.000345  -0.000011
    47  H    0.000069  -0.008839   0.009522   0.001473  -0.000243  -0.000077
    48  H    0.000000  -0.000000  -0.000000  -0.000000  -0.000004  -0.000001
              19         20         21         22         23         24
     1  C   -0.000223   0.000015   0.000004  -0.000008  -0.000000  -0.000000
[...]
      3        1           0.000794570   -0.004337191    0.000756076
      4        6           0.004526535   -0.005041059   -0.004657579
      5        1           0.004586484    0.004956524   -0.000298238
      6        8           0.000847737   -0.004287702   -0.010175865
      7        1          -0.005573710    0.002122269    0.001925444
      8        6          -0.011115545   -0.006556526   -0.004384493
      9        1           0.001164877    0.005346279   -0.002795872
     10        8           0.006956891   -0.001266792   -0.001014376
     11        1          -0.001791055    0.001756121    0.000352490
     12        6          -0.008651296    0.005097281    0.003062170
     13        1          -0.002516030   -0.001520768   -0.002417090
     14        6           0.000950970    0.001001847    0.006533389
     15        1          -0.002719150    0.002068794    0.001572296
     16        8          -0.001639687   -0.001288277    0.007238608
     17        7           0.020637651    0.006913656    0.002308491
     18        6           0.001867328   -0.007522773    0.003269746
     19        1           0.003361055    0.000509796    0.000342652
     20        6          -0.006662712   -0.000644974   -0.002011431
     21        1          -0.000870820   -0.004456752    0.000534424
     22        6          -0.016392126    0.014118079    0.019781964
     23        1          -0.001101587    0.000435612   -0.000370007
     24        1           0.014209065   -0.025590012   -0.033572762
     25        6          -0.013393070    0.004510925   -0.005674776
     26        6           0.006857219   -0.006475883    0.005293812
     27        1           0.003390269    0.000585886    0.001170547
     28        6          -0.014700366   -0.008360118   -0.000607290
     29        8           0.002885026    0.006605107   -0.004211398
     30        7           0.026751320   -0.000180997   -0.005159631
     31        1          -0.002647827   -0.005985716    0.008526007
     32        1          -0.003380999    0.005782521    0.007288910
     33        6          -0.001514572   -0.009793075    0.000392588
     34        6          -0.007153479   -0.028837642    0.007620621
     35        6           0.005161639    0.001073625   -0.004846167
     36        6          -0.001457548    0.002089688   -0.003870578
     37        6          -0.010597043    0.010562636    0.020782764
     38        8          -0.000087358    0.014256133   -0.009184793
     39       16           0.014662369    0.015142175    0.009087668
     40        1           0.001386710    0.000719106    0.000110077
     41        1           0.001316708    0.000507766    0.002216019
     42        1          -0.002022312   -0.001612189   -0.003054524
     43        1           0.000116814    0.002424480   -0.001630092
     44        1          -0.001376959    0.001210588    0.000191895
     45        1           0.003273792   -0.003832744   -0.000631696
     46        1          -0.000016631    0.004278679   -0.001846005
     47        1           0.000565635   -0.001828037   -0.000508436
     48        1          -0.002962778    0.004623180   -0.005251536
 -------------------------------------------------------------------
 Cartesian Forces:  Max     0.033572762 RMS     0.007885245
 Leave Link  716 at Sun Apr  9 10:18:47 2023, MaxMem=  2684354560 cpu:               0.8 elap:               0.1
 (Enter /opt/gaussian/g16/l103.exe)

 GradGradGradGradGradGradGradGradGradGradGradGradGradGradGradGradGradGrad
 Berny optimization.
 Search for a local minimum.
 Step number   1 out of a maximum of    2
 All quantities printed in internal units (Hartrees-Bohrs-Radians)
 Second derivative matrix not updated -- first step.
 ITU=  0
     Eigenvalues ---    0.00054   0.00098   0.00110   0.00128   0.00168
     Eigenvalues ---    0.00293   0.00358   0.00374   0.00449   0.00490
     Eigenvalues ---    0.00583   0.00741   0.00911   0.00980   0.01020
     Eigenvalues ---    0.01052   0.01235   0.01387   0.01418   0.01514
     Eigenvalues ---    0.01719   0.01990   0.02046   0.02424   0.02520
     Eigenvalues ---    0.02968   0.03155   0.03321   0.03941   0.04085
     Eigenvalues ---    0.04288   0.04576   0.04846   0.04954   0.05125
     Eigenvalues ---    0.05226   0.05466   0.05495   0.05777   0.05873
     Eigenvalues ---    0.06034   0.06096   0.06279   0.06473   0.06863
     Eigenvalues ---    0.07086   0.07514   0.07691   0.07754   0.08247
     Eigenvalues ---    0.08605   0.08962   0.09779   0.10047   0.10363
     Eigenvalues ---    0.10820   0.11182   0.11961   0.12200   0.12677
     Eigenvalues ---    0.13054   0.13130   0.13239   0.13352   0.13854
     Eigenvalues ---    0.14256   0.14387   0.14977   0.15705   0.16381
     Eigenvalues ---    0.16703   0.17202   0.17778   0.18832   0.19247
     Eigenvalues ---    0.20249   0.21449   0.21817   0.21967   0.24405
     Eigenvalues ---    0.27172   0.27760   0.27787   0.31120   0.32691
     Eigenvalues ---    0.34747   0.35531   0.36145   0.36860   0.37547
     Eigenvalues ---    0.37547   0.37547   0.37547   0.37547   0.41897
     Eigenvalues ---    0.43018   0.44727   0.47890   0.53464   0.56642
     Eigenvalues ---    0.60712   0.66906   0.67384   0.71619   0.76190
     Eigenvalues ---    0.76611   0.81379   0.83541   0.87749   0.89700
     Eigenvalues ---    0.90462   0.92455   0.92990   0.93938   0.95061
     Eigenvalues ---    0.95754   0.96088   0.98637   1.00302   1.02594
     Eigenvalues ---    1.03322   1.05577   1.07318   1.09320   1.10273
     Eigenvalues ---    1.15390   1.17807   1.20003   1.21739   1.27804
     Eigenvalues ---    1.28985   1.33389   1.52322   1.64463   1.68411
     Eigenvalues ---    1.79915   2.07551   2.31976
 Quadratic step=5.555D+00 exceeds max=3.000D-01 adjusted using Lamda=-5.799D-02.
 Angle between NR and scaled steps=  64.62 degrees.
 Angle between quadratic step and forces=  48.67 degrees.
 Linear search not attempted -- first point.
 Variable       Old X    -DE/DX   Delta X   Delta X   Delta X     New X
                                 (Linear)    (Quad)   (Total)
    X1        6.65764  -0.00559   0.00000  -0.02515  -0.02515   6.63249
    Y1       -6.99356   0.01450   0.00000   0.02908   0.02908  -6.96448
    Z1       -1.32086  -0.00078   0.00000  -0.00128  -0.00128  -1.32214
    X2        6.84256  -0.00034   0.00000  -0.02911  -0.02911   6.81346
    Y2       -7.30335  -0.00378   0.00000  -0.01083  -0.01083  -7.31418
    Z2       -3.34153  -0.00140   0.00000  -0.00118  -0.00118  -3.34271
    X3        8.34839   0.00079   0.00000  -0.02963  -0.02963   8.31877
    Y3       -7.65955  -0.00434   0.00000  -0.02018  -0.02018  -7.67973
    Z3       -0.36513   0.00076   0.00000  -0.00861  -0.00861  -0.37374
    X4        3.14922   0.00453   0.00000   0.00581   0.00581   3.15503
    Y4       -2.50542  -0.00504   0.00000   0.00619   0.00619  -2.49923
    Z4        1.84823  -0.00466   0.00000  -0.02024  -0.02024   1.82800
    X5        1.86529   0.00459   0.00000   0.01840   0.01840   1.88370
    Y5       -4.15750   0.00496   0.00000   0.01830   0.01830  -4.13920
    Z5        1.78621  -0.00030   0.00000  -0.01349  -0.01349   1.77272
    X6        2.59715   0.00085   0.00000  -0.01156  -0.01156   2.58559
    Y6       -0.92036  -0.00429   0.00000   0.00789   0.00789  -0.91247
    Z6        3.88629  -0.01018   0.00000  -0.04075  -0.04075   3.84554
    X7        0.85966  -0.00557   0.00000  -0.02145  -0.02145   0.83821
    Y7       -0.37069   0.00212   0.00000   0.01180   0.01180  -0.35889
    Z7        3.74132   0.00193   0.00000   0.00371   0.00371   3.74503
    X8        5.90212  -0.01112   0.00000  -0.01317  -0.01317   5.88896
    Y8       -3.44987  -0.00656   0.00000   0.00549   0.00549  -3.44438
    Z8        1.96355  -0.00438   0.00000  -0.00890  -0.00890   1.95465
    X9        6.07453   0.00116   0.00000   0.00270   0.00270   6.07723
    Y9       -5.11940   0.00535   0.00000   0.02268   0.02268  -5.09672
    Z9        3.20120  -0.00280   0.00000  -0.01064  -0.01064   3.19055
   X10        7.36611   0.00696   0.00000   0.01915   0.01915   7.38526
   Y10       -1.41970  -0.00127   0.00000  -0.00267  -0.00267  -1.42237
   Z10        2.83856  -0.00101   0.00000  -0.02134  -0.02134   2.81722
   X11        9.11123  -0.00179   0.00000   0.01384   0.01384   9.12508
   Y11       -1.94055   0.00176   0.00000  -0.00449  -0.00449  -1.94505
   Z11        2.85828   0.00035   0.00000  -0.01261  -0.01261   2.84567
   X12        3.18317  -0.00865   0.00000  -0.00331  -0.00331   3.17986
   Y12       -1.25651   0.00510   0.00000   0.01861   0.01861  -1.23790
   Z12       -0.79854   0.00306   0.00000   0.00895   0.00895  -0.78960
   X13        4.28233  -0.00252   0.00000  -0.00409  -0.00409   4.27824
   Y13        0.49811  -0.00152   0.00000   0.01156   0.01156   0.50967
   Z13       -0.62600  -0.00242   0.00000  -0.01623  -0.01623  -0.64223
   X14        6.44742   0.00095   0.00000  -0.01005  -0.01005   6.43737
   Y14       -4.15893   0.00100   0.00000   0.01540   0.01540  -4.14353
   Z14       -0.85451   0.00653   0.00000   0.01699   0.01699  -0.83752
   X15        8.24451  -0.00272   0.00000  -0.02267  -0.02267   8.22184
   Y15       -3.28325   0.00207   0.00000   0.02792   0.02792  -3.25533
   Z15       -1.41925   0.00157   0.00000   0.01267   0.01267  -1.40658
   X16        4.45476  -0.00164   0.00000  -0.02009  -0.02009   4.43466
   Y16       -3.05565  -0.00129   0.00000  -0.00041  -0.00041  -3.05606
   Z16       -2.33645   0.00724   0.00000   0.03106   0.03106  -2.30539
   X17        0.71985   0.02064   0.00000   0.02606   0.02606   0.74591
   Y17       -0.58760   0.00691   0.00000   0.00862   0.00862  -0.57898
   Z17       -1.83010   0.00231   0.00000   0.00753   0.00753  -1.82257
   X18       -1.15221   0.00187   0.00000   0.01473   0.01473  -1.13748
   Y18       -2.40511  -0.00752   0.00000  -0.00572  -0.00572  -2.41083
   Z18       -2.11899   0.00327   0.00000   0.01548   0.01548  -2.10350
   X19       -0.63702   0.00336   0.00000   0.03572   0.03572  -0.60130
   Y19       -4.33267   0.00051   0.00000   0.00440   0.00440  -4.32828
   Z19       -1.68897   0.00034   0.00000   0.02490   0.02490  -1.66407
   X20       -3.42593  -0.00666   0.00000  -0.00191  -0.00191  -3.42784
   Y20       -1.81050  -0.00064   0.00000  -0.02477  -0.02477  -1.83526
   Z20       -2.96205  -0.00201   0.00000   0.00098   0.00098  -2.96107
   X21       -4.82362  -0.00087   0.00000   0.00025   0.00025  -4.82337
   Y21       -3.25785  -0.00446   0.00000  -0.03712  -0.03712  -3.29497
   Z21       -3.25112   0.00053   0.00000   0.02236   0.02236  -3.22875
   X22       -4.12866  -0.01639   0.00000  -0.01816  -0.01816  -4.14682
   Y22        0.85027   0.01412   0.00000  -0.02602  -0.02602   0.82425
   Z22       -3.49115   0.01978   0.00000  -0.02099  -0.02099  -3.51214
   X23       -5.53679  -0.00110   0.00000  -0.02144  -0.02144  -5.55823
   Y23        0.96299   0.00044   0.00000  -0.00147  -0.00147   0.96153
   Z23       -4.98682  -0.00037   0.00000  -0.01197  -0.01197  -4.99879
   X24       -5.07368   0.01421   0.00000   0.01796   0.01796  -5.05572
   Y24        1.80143  -0.02559   0.00000  -0.13191  -0.13191   1.66952
   Z24       -1.71219  -0.03357   0.00000  -0.10650  -0.10650  -1.81869
   X25       -1.83084  -0.01339   0.00000  -0.01972  -0.01972  -1.85056
   Y25        2.40451   0.00451   0.00000  -0.00465  -0.00465   2.39986
   Z25       -4.03054  -0.00567   0.00000   0.01143   0.01143  -4.01911
   X26        0.38521   0.00686   0.00000   0.00443   0.00443   0.38964
   Y26        1.70995  -0.00648   0.00000  -0.00101  -0.00101   1.70894
   Z26       -3.04997   0.00529   0.00000   0.01177   0.01177  -3.03821
   X27        2.02254   0.00339   0.00000   0.01184   0.01184   2.03438
   Y27        2.91214   0.00059   0.00000   0.00335   0.00335   2.91548
   Z27       -3.21924   0.00117   0.00000   0.01722   0.01722  -3.20202
   X28       -2.13599  -0.01470   0.00000  -0.00418  -0.00418  -2.14016
   Y28        4.88892  -0.00836   0.00000  -0.00646  -0.00646   4.88245
   Z28       -5.32033  -0.00061   0.00000   0.02531   0.02531  -5.29502
   X29       -0.87647   0.00289   0.00000   0.01380   0.01380  -0.86267
   Y29        6.71597   0.00661   0.00000   0.00245   0.00245   6.71842
   Z29       -4.80811  -0.00421   0.00000  -0.02900  -0.02900  -4.83711
   X30       -4.22039   0.02675   0.00000   0.07190   0.07190  -4.14849
   Y30        5.02404  -0.00018   0.00000  -0.00153  -0.00153   5.02251
   Z30       -7.04142  -0.00516   0.00000   0.00067   0.00067  -7.04074
   X31       -4.00938  -0.00265   0.00000   0.01806   0.01806  -3.99132
   Y31        6.57822  -0.00599   0.00000   0.00914   0.00914   6.58736
   Z31       -8.18020   0.00853   0.00000   0.04008   0.04008  -8.14012
   X32       -4.33318  -0.00338   0.00000  -0.01479  -0.01479  -4.34797
   Y32        3.43707   0.00578   0.00000   0.00595   0.00595   3.44303
   Z32       -8.14241   0.00729   0.00000   0.03385   0.03385  -8.10855
   X33        1.30633  -0.00151   0.00000  -0.00333  -0.00333   1.30300
   Y33        4.00709  -0.00979   0.00000  -0.02871  -0.02871   3.97838
   Z33        7.15970   0.00039   0.00000   0.00149   0.00149   7.16119
   X34       -1.98728  -0.00715   0.00000   0.00624   0.00624  -1.98104
   Y34        3.88764  -0.02884   0.00000  -0.02031  -0.02031   3.86733
   Z34        3.24028   0.00762   0.00000  -0.00094  -0.00094   3.23933
   X35       -3.42239   0.00516   0.00000   0.00245   0.00245  -3.41994
   Y35        5.11692   0.00107   0.00000   0.01554   0.01554   5.13246
   Z35        1.23478  -0.00485   0.00000   0.00819   0.00819   1.24297
   X36       -7.25099  -0.00146   0.00000  -0.01623  -0.01623  -7.26722
   Y36        5.84802   0.00209   0.00000   0.00155   0.00155   5.84957
   Z36       -1.32198  -0.00387   0.00000  -0.01085  -0.01085  -1.33283
   X37       -5.67265  -0.01060   0.00000  -0.04110  -0.04110  -5.71374
   Y37        4.33361   0.01056   0.00000   0.05365   0.05365   4.38726
   Z37        0.43560   0.02078   0.00000   0.07889   0.07889   0.51450
   X38       -2.25641  -0.00009   0.00000  -0.00907  -0.00907  -2.26548
   Y38        1.69060   0.01426   0.00000  -0.01593  -0.01593   1.67468
   Z38        3.95811  -0.00918   0.00000  -0.04875  -0.04875   3.90936
   X39        0.11288   0.01466   0.00000   0.03002   0.03002   0.14290
   Y39        5.94661   0.01514   0.00000   0.00825   0.00825   5.95486
   Z39        4.64027   0.00909   0.00000   0.02073   0.02073   4.66100
   X40       -0.29814   0.00139   0.00000   0.00022   0.00022  -0.29792
   Y40        3.21470   0.00072   0.00000  -0.01406  -0.01406   3.20063
   Z40        8.18020   0.00011   0.00000   0.00818   0.00818   8.18838
   X41        2.39587   0.00132   0.00000   0.02553   0.02553   2.42139
   Y41        2.47028   0.00051   0.00000  -0.01539  -0.01539   2.45489
   Z41        6.33597   0.00222   0.00000   0.02478   0.02478   6.36075
   X42       -7.50934  -0.00202   0.00000   0.00131   0.00131  -7.50803
   Y42        4.90055  -0.00161   0.00000  -0.03492  -0.03492   4.86563
   Z42       -3.12411  -0.00305   0.00000  -0.00550  -0.00550  -3.12960
   X43       -6.36264   0.00012   0.00000  -0.00782  -0.00782  -6.37046
   Y43        7.65955   0.00242   0.00000  -0.00129  -0.00129   7.65826
   Z43       -1.69471  -0.00163   0.00000  -0.03686  -0.03686  -1.73156
   X44       -9.11123  -0.00138   0.00000  -0.02231  -0.02231  -9.13354
   Y44        6.15586   0.00121   0.00000   0.01487   0.01487   6.17072
   Z44       -0.49845   0.00019   0.00000  -0.03138  -0.03138  -0.52983
   X45       -6.60915   0.00327   0.00000   0.01119   0.01119  -6.59796
   Y45        2.81373  -0.00383   0.00000  -0.00944  -0.00944   2.80429
   Z45        1.44737  -0.00063   0.00000   0.03210   0.03210   1.47947
   X46       -2.54512  -0.00002   0.00000   0.00376   0.00376  -2.54137
   Y46        6.76494   0.00428   0.00000   0.01502   0.01502   6.77997
   Z46        0.41026  -0.00185   0.00000  -0.01243  -0.01243   0.39783
   X47        4.99148   0.00057   0.00000  -0.01585  -0.01585   4.97563
   Y47       -7.97024  -0.00183   0.00000   0.00924   0.00924  -7.96100
   Z47       -0.60475  -0.00051   0.00000  -0.00296  -0.00296  -0.60771
   X48        2.50235  -0.00296   0.00000  -0.02849  -0.02849   2.47385
   Y48        5.07424   0.00462   0.00000   0.03140   0.03140   5.10564
   Z48        8.45335  -0.00525   0.00000  -0.03130  -0.03130   8.42205
         Item               Value     Threshold  Converged?
 Maximum Force            0.033573     0.000450     NO 
 RMS     Force            0.007885     0.000300     NO 
 Maximum Displacement     0.131907     0.001800     NO 
 RMS     Displacement     0.025018     0.001200     NO 
 Predicted change in Energy=-1.199327D-02
 GradGradGradGradGradGradGradGradGradGradGradGradGradGradGradGradGradGrad

 Leave Link  103 at Sun Apr  9 10:18:47 2023, MaxMem=  2684354560 cpu:               1.6 elap:               0.1
 (Enter /opt/gaussian/g16/l9999.exe)

 Test job not archived.
 1\1\GINC-JULIO-SYS\Force\RM062X\def2TZVP\C16H24N2O5S1\JVELAZQUEZ\09-Ap
 r-2023\0\\#P M062X/Def2TZVP scf=(direct,conver=8) EmpiricalDispersion=
 GD3 NoSymm Force pop=(NBORead) Charge Prop=(Field,Read)\\Gaussian run 
 using SANDER external interface, route from template gau_job.tpl\\0,1\
 C,3.5230699409,-3.700835207,-0.6989682127\H,3.6209293907,-3.8647643294
 ,-1.7682626766\H,4.4177799406,-4.0532596332,-0.1932190173\C,1.66649646
 58,-1.3258122644,0.9780438253\H,0.9870702602,-2.2000558802,0.945224019
 \O,1.3743503827,-0.4870338171,2.056536004\H,0.4549101298,-0.1961589981
 ,1.9798214517\C,3.1232693269,-1.82559246,1.0390635368\H,3.2145028756,-
 2.7090693762,1.694000142\O,3.8979800001,-0.7512718741,1.5021002453\H,4
 .8214557698,-1.0268961784,1.5125360557\C,1.6844608554,-0.6649166197,-0
 .4225708712\H,2.2661117929,0.2635869537,-0.3312633501\C,3.4118272725,-
 2.2008111722,-0.4521898296\H,4.3628047929,-1.7374190428,-0.7510360312\
 O,2.3573556329,-1.6169818197,-1.236396953\N,0.3809302,-0.310942251,-0.
 9684490132\C,-0.6097228845,-1.2727297769,-1.1213205246\H,-0.3370957777
 ,-2.2927507707,-0.8937620285\C,-1.8129236458,-0.9580734818,-1.56744879
 72\H,-2.5525477161,-1.7239813323,-1.7204166424\C,-2.1847903134,0.44994
 58865,-1.8474374947\H,-2.9299426594,0.509594746,-2.6389089056\H,-2.684
 8780204,0.9532765215,-0.9060522661\C,-0.9688382952,1.2724124426,-2.132
 8705375\C,0.2038451786,0.9048674961,-1.6139767262\H,1.0702807713,1.541
 0374744,-1.7035510772\C,-1.1303150571,2.5871035164,-2.815395\O,-0.4638
 077298,3.5539397502,-2.5443433486\N,-2.2333364445,2.6586095047,-3.7261
 57019\H,-2.1216727309,3.4810429734,-4.3287761906\H,-2.2930203318,1.818
 8205015,-4.3087772737\C,0.6912826012,2.1204597131,3.7887492245\C,-1.05
 16222983,2.0572500455,1.7146798177\C,-1.811051109,2.7077573982,0.65341
 77659\C,-3.837060383,3.0946400419,-0.6995597512\C,-3.0018358189,2.2932
 464454,0.230512125\O,-1.1940382766,0.894628526,2.0945428498\S,0.059734
 8804,3.1468109329,2.4555242083\H,-0.157769451,1.701143666,4.3287761906
 \H,1.2678376589,1.3072151467,3.3528493883\H,-3.9737717188,2.593260375,
 -1.6532064018\H,-3.3669628856,4.0532596332,-0.8967997022\H,-4.82145576
 98,3.2575385259,-0.2637664494\H,-3.4974115665,1.4889615728,0.765914486
 8\H,-1.3468200647,3.5798538434,0.2170995842\H,2.6413778952,-4.21766956
 26,-0.320020478\H,1.3241850761,2.6851707795,4.4733190666\\Version=ES64
 L-G16RevA.03\HF=-1507.8888476\RMSD=9.293e-09\RMSF=7.885e-03\Dipole=0.1
 570377,-1.2535383,-0.5098454\Quadrupole=10.1656742,-8.1980645,-1.96760
 97,-8.8444649,8.2139597,0.007363\PG=C01 [X(C16H24N2O5S1)]\\@


 EXPERIENCE IS THE FRUIT OF THE TREE OF ERRORS.
 Job cpu time:       0 days  6 hours 31 minutes 13.3 seconds.
 Elapsed time:       0 days  0 hours 24 minutes 27.6 seconds.
 File lengths (MBytes):  RWF=    435 Int=      0 D2E=      0 Chk=     48 Scr=      1
 Normal termination of Gaussian 16 at Sun Apr  9 10:18:47 2023.
