 Entering Gaussian System, Link 0=g16
 Initial command:
 /storage/apps/GAUSSIAN/G16_RevA03/g16/l1.exe "/scratch/tmp/1267151/Gau-213323.inp" -scrdir="/scratch/tmp/1267151/"
 Entering Link 1 = /storage/apps/GAUSSIAN/G16_RevA03/g16/l1.exe PID=    213324.
  
 Copyright (c) 1988,1990,1992,1993,1995,1998,2003,2009,2016,
            Gaussian, Inc.  All Rights Reserved.
  
 This is part of the Gaussian(R) 16 program.  It is based on
 the Gaussian(R) 09 system (copyright 2009, Gaussian, Inc.),
 the Gaussian(R) 03 system (copyright 2003, Gaussian, Inc.),
 the Gaussian(R) 98 system (copyright 1998, Gaussian, Inc.),
 the Gaussian(R) 94 system (copyright 1995, Gaussian, Inc.),
 the Gaussian 92(TM) system (copyright 1992, Gaussian, Inc.),
 the Gaussian 90(TM) system (copyright 1990, Gaussian, Inc.),
 the Gaussian 88(TM) system (copyright 1988, Gaussian, Inc.),
 the Gaussian 86(TM) system (copyright 1986, Carnegie Mellon
 University), and the Gaussian 82(TM) system (copyright 1983,
 Carnegie Mellon University). Gaussian is a federally registered
 trademark of Gaussian, Inc.
  
 This software contains proprietary and confidential information,
 including trade secrets, belonging to Gaussian, Inc.
  
 This software is provided under written license and may be
 used, copied, transmitted, or stored only in accord with that
 written license.
  
 The following legend is applicable only to US Government
 contracts under FAR:
  
                    RESTRICTED RIGHTS LEGEND
  
 Use, reproduction and disclosure by the US Government is
 subject to restrictions as set forth in subparagraphs (a)
 and (c) of the Commercial Computer Software - Restricted
 Rights clause in FAR 52.227-19.
  
 Gaussian, Inc.
 340 Quinnipiac St., Bldg. 40, Wallingford CT 06492
  
  
 ---------------------------------------------------------------
 Warning -- This program may not be used in any manner that
 competes with the business of Gaussian, Inc. or will provide
 assistance to any competitor of Gaussian, Inc.  The licensee
 of this program is prohibited from giving any competitor of
 Gaussian, Inc. access to this program.  By using this program,
 the user acknowledges that Gaussian, Inc. is engaged in the
 business of creating and licensing software in the field of
 computational chemistry and represents and warrants to the
 licensee that it is not a competitor of Gaussian, Inc. and that
 it will not use this program in any manner prohibited above.
 ---------------------------------------------------------------
  

 Cite this work as:
 Gaussian 16, Revision A.03,
 M. J. Frisch, G. W. Trucks, H. B. Schlegel, G. E. Scuseria, 
 M. A. Robb, J. R. Cheeseman, G. Scalmani, V. Barone, 
 G. A. Petersson, H. Nakatsuji, X. Li, M. Caricato, A. V. Marenich, 
 J. Bloino, B. G. Janesko, R. Gomperts, B. Mennucci, H. P. Hratchian, 
 J. V. Ortiz, A. F. Izmaylov, J. L. Sonnenberg, D. Williams-Young, 
 F. Ding, F. Lipparini, F. Egidi, J. Goings, B. Peng, A. Petrone, 
 T. Henderson, D. Ranasinghe, V. G. Zakrzewski, J. Gao, N. Rega, 
 G. Zheng, W. Liang, M. Hada, M. Ehara, K. Toyota, R. Fukuda, 
 J. Hasegawa, M. Ishida, T. Nakajima, Y. Honda, O. Kitao, H. Nakai, 
 T. Vreven, K. Throssell, J. A. Montgomery, Jr., J. E. Peralta, 
 F. Ogliaro, M. J. Bearpark, J. J. Heyd, E. N. Brothers, K. N. Kudin, 
 V. N. Staroverov, T. A. Keith, R. Kobayashi, J. Normand, 
 K. Raghavachari, A. P. Rendell, J. C. Burant, S. S. Iyengar, 
 J. Tomasi, M. Cossi, J. M. Millam, M. Klene, C. Adamo, R. Cammi, 
 J. W. Ochterski, R. L. Martin, K. Morokuma, O. Farkas, 
 J. B. Foresman, and D. J. Fox, Gaussian, Inc., Wallingford CT, 2016.
 
 ******************************************
 Gaussian 16:  ES64L-G16RevA.03 25-Dec-2016
                19-Feb-2023 
 ******************************************
 %chk=gau_job.chk
 %NProcShared=16
 Will use up to   16 processors via shared memory.
 %mem=20GB
 ----------------------------------------------------------------------
 #P M062X/Def2TZVP scf=(direct,conver=8) EmpiricalDispersion=GD3 NoSymm
  Force pop=(NBORead) Charge Prop=(Field,Read)
 ----------------------------------------------------------------------
 1/10=7,18=10,28=-2,30=1,38=1,125=101/1,3;
 2/12=2,15=1,17=6,18=5,29=2,40=1/2;
 3/5=44,7=101,11=2,25=1,30=1,71=1,74=-55,124=31/1,2,3;
 4//1;
 5/5=2,6=8,38=5/2;
 6/7=2,8=2,9=2,10=2,14=2,15=1,28=1,40=2/1,2,7;
 7/7=1,16=-2,29=1,30=1/1,2,3,16;
 1/10=7,18=10,28=-2,30=1/3;
 99/12=1/99;
 Leave Link    1 at Sun Feb 19 04:03:04 2023, MaxMem=  2684354560 cpu:               0.7 elap:               0.0
 (Enter /storage/apps/GAUSSIAN/G16_RevA03/g16/l101.exe)
 ----------------------------------------------------------------------
 Gaussian run using SANDER external interface, route from template gau_
 job.tpl
 ----------------------------------------------------------------------
 Symbolic Z-matrix:
 Charge =  0 Multiplicity = 1
 C                     3.42455  -3.80595  -0.70743 
 H                     3.5      -3.94762  -1.79428 
 H                     4.32473  -4.20288  -0.21645 
 C                     1.58707  -1.51848   1.0013 
 H                     0.97076  -2.42928   0.8761 
 O                     1.10587  -0.75044   2.06435 
 H                     0.51875  -0.06177   1.70697 
 C                     3.04469  -1.97144   1.09548 
 H                     3.16724  -2.85857   1.744 
 O                     3.82746  -0.90613   1.55585 
 H                     4.77041  -1.08197   1.31506 
 C                     1.61008  -0.79406  -0.34272 
 H                     2.16832   0.14637  -0.20425 
 C                     3.33384  -2.31859  -0.39549 
 H                     4.30183  -1.87152  -0.67184 
 O                     2.30569  -1.70142  -1.16423 
 N                     0.33058  -0.46014  -0.87736 
 C                    -0.61917  -1.46824  -1.07482 
 H                    -0.30518  -2.47453  -0.79855 
 C                    -1.81386  -1.22786  -1.62355 
 H                    -2.49485  -2.06627  -1.7708 
 C                    -2.2299    0.15196  -2.05889 
 H                    -2.77286   0.08905  -3.01624 
 H                    -2.96713   0.64645  -1.31104 
 C                    -1.02626   1.05397  -2.14582 
 C                     0.13341   0.74831  -1.53721 
 H                     0.98102   1.43858  -1.56666 
 C                    -1.1457    2.38352  -2.80531 
 O                    -0.43168   3.32974  -2.49764 
 N                    -2.13546   2.50967  -3.72946 
 H                    -2.06925   3.37072  -4.26792 
 H                    -2.47397   1.6979   -4.2517 
 C                     0.51769   2.13788   3.73569 
 C                    -1.10349   2.24036   1.50192 
 C                    -1.83547   2.97004   0.45149 
 C                    -3.84209   3.32214  -0.97068 
 C                    -2.99962   2.51761  -0.03304 
 O                    -1.16768   1.03761   1.69246 
 S                    -0.1579    3.31205   2.53706 
 H                    -0.31389   1.65589   4.26792 
 H                     1.09552   1.36384   3.21211 
 H                    -4.12573   2.74062  -1.8548 
 H                    -3.29283   4.20288  -1.33002 
 H                    -4.77041   3.64899  -0.47164 
 H                    -3.39487   1.5794    0.37094 
 H                    -1.40698   3.92161   0.11322 
 H                     2.52769  -4.29784  -0.33089 
 H                     1.15548   2.65539   4.45228 
 
 ITRead=  0  0  0  0  0  0  0  0  0  0  0  0  0  0  0  0  0  0  0  0
 ITRead=  0  0  0  0  0  0  0  0  0  0  0  0  0  0  0  0  0  0  0  0
 ITRead=  0  0  0  0  0  0  0  0
 MicOpt= -1 -1 -1 -1 -1 -1 -1 -1 -1 -1 -1 -1 -1 -1 -1 -1 -1 -1 -1 -1
 MicOpt= -1 -1 -1 -1 -1 -1 -1 -1 -1 -1 -1 -1 -1 -1 -1 -1 -1 -1 -1 -1
 MicOpt= -1 -1 -1 -1 -1 -1 -1 -1
 NAtoms=     48 NQM=       48 NQMF=       0 NMMI=      0 NMMIF=      0
                NMic=       0 NMicF=      0.
                    Isotopes and Nuclear Properties:
 (Nuclear quadrupole moments (NQMom) in fm**2, nuclear magnetic moments (NMagM)
  in nuclear magnetons)

  Atom         1           2           3           4           5           6           7           8           9          10
 IAtWgt=          12           1           1          12           1          16           1          12           1          16
 AtmWgt=  12.0000000   1.0078250   1.0078250  12.0000000   1.0078250  15.9949146   1.0078250  12.0000000   1.0078250  15.9949146
 NucSpn=           0           1           1           0           1           0           1           0           1           0
 AtZEff=  -0.0000000  -0.0000000  -0.0000000  -0.0000000  -0.0000000  -0.0000000  -0.0000000  -0.0000000  -0.0000000  -0.0000000
 NQMom=    0.0000000   0.0000000   0.0000000   0.0000000   0.0000000   0.0000000   0.0000000   0.0000000   0.0000000   0.0000000
 NMagM=    0.0000000   2.7928460   2.7928460   0.0000000   2.7928460   0.0000000   2.7928460   0.0000000   2.7928460   0.0000000
 AtZNuc=   6.0000000   1.0000000   1.0000000   6.0000000   1.0000000   8.0000000   1.0000000   6.0000000   1.0000000   8.0000000

  Atom        11          12          13          14          15          16          17          18          19          20
 IAtWgt=           1          12           1          12           1          16          14          12           1          12
 AtmWgt=   1.0078250  12.0000000   1.0078250  12.0000000   1.0078250  15.9949146  14.0030740  12.0000000   1.0078250  12.0000000
 NucSpn=           1           0           1           0           1           0           2           0           1           0
 AtZEff=  -0.0000000  -0.0000000  -0.0000000  -0.0000000  -0.0000000  -0.0000000  -0.0000000  -0.0000000  -0.0000000  -0.0000000
 NQMom=    0.0000000   0.0000000   0.0000000   0.0000000   0.0000000   0.0000000   2.0440000   0.0000000   0.0000000   0.0000000
 NMagM=    2.7928460   0.0000000   2.7928460   0.0000000   2.7928460   0.0000000   0.4037610   0.0000000   2.7928460   0.0000000
 AtZNuc=   1.0000000   6.0000000   1.0000000   6.0000000   1.0000000   8.0000000   7.0000000   6.0000000   1.0000000   6.0000000

  Atom        21          22          23          24          25          26          27          28          29          30
 IAtWgt=           1          12           1           1          12          12           1          12          16          14
 AtmWgt=   1.0078250  12.0000000   1.0078250   1.0078250  12.0000000  12.0000000   1.0078250  12.0000000  15.9949146  14.0030740
 NucSpn=           1           0           1           1           0           0           1           0           0           2
 AtZEff=  -0.0000000  -0.0000000  -0.0000000  -0.0000000  -0.0000000  -0.0000000  -0.0000000  -0.0000000  -0.0000000  -0.0000000
 NQMom=    0.0000000   0.0000000   0.0000000   0.0000000   0.0000000   0.0000000   0.0000000   0.0000000   0.0000000   2.0440000
 NMagM=    2.7928460   0.0000000   2.7928460   2.7928460   0.0000000   0.0000000   2.7928460   0.0000000   0.0000000   0.4037610
 AtZNuc=   1.0000000   6.0000000   1.0000000   1.0000000   6.0000000   6.0000000   1.0000000   6.0000000   8.0000000   7.0000000

  Atom        31          32          33          34          35          36          37          38          39          40
 IAtWgt=           1           1          12          12          12          12          12          16          32           1
 AtmWgt=   1.0078250   1.0078250  12.0000000  12.0000000  12.0000000  12.0000000  12.0000000  15.9949146  31.9720718   1.0078250
 NucSpn=           1           1           0           0           0           0           0           0           0           1
 AtZEff=  -0.0000000  -0.0000000  -0.0000000  -0.0000000  -0.0000000  -0.0000000  -0.0000000  -0.0000000  -0.0000000  -0.0000000
 NQMom=    0.0000000   0.0000000   0.0000000   0.0000000   0.0000000   0.0000000   0.0000000   0.0000000   0.0000000   0.0000000
 NMagM=    2.7928460   2.7928460   0.0000000   0.0000000   0.0000000   0.0000000   0.0000000   0.0000000   0.0000000   2.7928460
 AtZNuc=   1.0000000   1.0000000   6.0000000   6.0000000   6.0000000   6.0000000   6.0000000   8.0000000  16.0000000   1.0000000

  Atom        41          42          43          44          45          46          47          48
 IAtWgt=           1           1           1           1           1           1           1           1
 AtmWgt=   1.0078250   1.0078250   1.0078250   1.0078250   1.0078250   1.0078250   1.0078250   1.0078250
 NucSpn=           1           1           1           1           1           1           1           1
 AtZEff=  -0.0000000  -0.0000000  -0.0000000  -0.0000000  -0.0000000  -0.0000000  -0.0000000  -0.0000000
 NQMom=    0.0000000   0.0000000   0.0000000   0.0000000   0.0000000   0.0000000   0.0000000   0.0000000
 NMagM=    2.7928460   2.7928460   2.7928460   2.7928460   2.7928460   2.7928460   2.7928460   2.7928460
 AtZNuc=   1.0000000   1.0000000   1.0000000   1.0000000   1.0000000   1.0000000   1.0000000   1.0000000
 Background charge distribution read from input stream:
 Leave Link  101 at Sun Feb 19 04:03:05 2023, MaxMem=  2684354560 cpu:               1.5 elap:               0.1
 (Enter /storage/apps/GAUSSIAN/G16_RevA03/g16/l103.exe)

 GradGradGradGradGradGradGradGradGradGradGradGradGradGradGradGradGradGrad
 Berny optimization.
 Initialization pass.
 Trust Radius=3.00D-01 FncErr=1.00D-07 GrdErr=1.00D-07 EigMax=2.50D+02 EigMin=1.00D-04
 Number of steps in this run=      2 maximum allowed number of steps=      2.
 GradGradGradGradGradGradGradGradGradGradGradGradGradGradGradGradGradGrad

 Leave Link  103 at Sun Feb 19 04:03:05 2023, MaxMem=  2684354560 cpu:               0.3 elap:               0.0
 (Enter /storage/apps/GAUSSIAN/G16_RevA03/g16/l202.exe)
 ---------------------------------------------------------------------------------------------------
                            Z-MATRIX (ANGSTROMS AND DEGREES)
   CD    Cent   Atom    N1       Length/X        N2       Alpha/Y        N3        Beta/Z          J
 ---------------------------------------------------------------------------------------------------
      1      1  C        0   3.424550         -3.805949         -0.707426
      2      2  H        0   3.499999         -3.947617         -1.794279
      3      3  H        0   4.324727         -4.202877         -0.216446
      4      4  C        0   1.587068         -1.518475          1.001303
      5      5  H        0   0.970756         -2.429282          0.876097
      6      6  O        0   1.105870         -0.750444          2.064355
      7      7  H        0   0.518752         -0.061766          1.706965
      8      8  C        0   3.044688         -1.971441          1.095475
      9      9  H        0   3.167244         -2.858572          1.744001
     10     10  O        0   3.827464         -0.906125          1.555848
     11     11  H        0   4.770406         -1.081974          1.315057
     12     12  C        0   1.610083         -0.794055         -0.342718
     13     13  H        0   2.168316          0.146372         -0.204246
     14     14  C        0   3.333838         -2.318594         -0.395488
     15     15  H        0   4.301832         -1.871522         -0.671841
     16     16  O        0   2.305690         -1.701421         -1.164233
     17     17  N        0   0.330581         -0.460140         -0.877358
     18     18  C        0  -0.619173         -1.468240         -1.074820
     19     19  H        0  -0.305184         -2.474533         -0.798552
     20     20  C        0  -1.813855         -1.227858         -1.623553
     21     21  H        0  -2.494848         -2.066267         -1.770804
     22     22  C        0  -2.229899          0.151962         -2.058889
     23     23  H        0  -2.772859          0.089055         -3.016243
     24     24  H        0  -2.967134          0.646455         -1.311039
     25     25  C        0  -1.026264          1.053972         -2.145817
     26     26  C        0   0.133409          0.748312         -1.537215
     27     27  H        0   0.981022          1.438581         -1.566662
     28     28  C        0  -1.145695          2.383519         -2.805315
     29     29  O        0  -0.431681          3.329745         -2.497635
     30     30  N        0  -2.135457          2.509670         -3.729457
     31     31  H        0  -2.069254          3.370723         -4.267921
     32     32  H        0  -2.473969          1.697902         -4.251702
     33     33  C        0   0.517693          2.137877          3.735687
     34     34  C        0  -1.103488          2.240364          1.501920
     35     35  C        0  -1.835474          2.970044          0.451495
     36     36  C        0  -3.842091          3.322143         -0.970681
     37     37  C        0  -2.999622          2.517614         -0.033045
     38     38  O        0  -1.167679          1.037615          1.692457
     39     39  S        0  -0.157901          3.312053          2.537064
     40     40  H        0  -0.313886          1.655887          4.267921
     41     41  H        0   1.095519          1.363842          3.212109
     42     42  H        0  -4.125730          2.740619         -1.854796
     43     43  H        0  -3.292834          4.202877         -1.330021
     44     44  H        0  -4.770406          3.648994         -0.471642
     45     45  H        0  -3.394875          1.579398          0.370943
     46     46  H        0  -1.406981          3.921605          0.113215
     47     47  H        0   2.527687         -4.297843         -0.330894
     48     48  H        0   1.155480          2.655387          4.452284
 ---------------------------------------------------------------------------------------------------
                         Z-Matrix orientation:                         
 ---------------------------------------------------------------------
 Center     Atomic      Atomic             Coordinates (Angstroms)
 Number     Number       Type             X           Y           Z
 ---------------------------------------------------------------------
      1          6           0        3.424550   -3.805949   -0.707426
      2          1           0        3.499999   -3.947617   -1.794279
      3          1           0        4.324727   -4.202877   -0.216446
      4          6           0        1.587068   -1.518475    1.001303
      5          1           0        0.970756   -2.429282    0.876097
      6          8           0        1.105870   -0.750444    2.064355
      7          1           0        0.518752   -0.061766    1.706965
      8          6           0        3.044688   -1.971441    1.095475
      9          1           0        3.167244   -2.858572    1.744001
     10          8           0        3.827464   -0.906125    1.555848
     11          1           0        4.770406   -1.081974    1.315057
     12          6           0        1.610083   -0.794055   -0.342718
     13          1           0        2.168316    0.146372   -0.204246
     14          6           0        3.333838   -2.318594   -0.395488
     15          1           0        4.301832   -1.871522   -0.671841
     16          8           0        2.305690   -1.701421   -1.164233
     17          7           0        0.330581   -0.460140   -0.877358
     18          6           0       -0.619173   -1.468240   -1.074820
     19          1           0       -0.305184   -2.474533   -0.798552
     20          6           0       -1.813855   -1.227858   -1.623553
     21          1           0       -2.494848   -2.066267   -1.770804
     22          6           0       -2.229899    0.151962   -2.058889
     23          1           0       -2.772859    0.089055   -3.016243
     24          1           0       -2.967134    0.646455   -1.311039
     25          6           0       -1.026264    1.053972   -2.145817
     26          6           0        0.133409    0.748312   -1.537215
     27          1           0        0.981022    1.438581   -1.566662
     28          6           0       -1.145695    2.383519   -2.805315
     29          8           0       -0.431681    3.329745   -2.497635
     30          7           0       -2.135457    2.509670   -3.729457
     31          1           0       -2.069254    3.370723   -4.267921
     32          1           0       -2.473969    1.697902   -4.251702
     33          6           0        0.517693    2.137877    3.735687
     34          6           0       -1.103488    2.240364    1.501920
     35          6           0       -1.835474    2.970044    0.451495
     36          6           0       -3.842091    3.322143   -0.970681
     37          6           0       -2.999622    2.517614   -0.033045
     38          8           0       -1.167679    1.037615    1.692457
     39         16           0       -0.157901    3.312053    2.537064
     40          1           0       -0.313886    1.655887    4.267921
     41          1           0        1.095519    1.363842    3.212109
     42          1           0       -4.125730    2.740619   -1.854796
     43          1           0       -3.292834    4.202877   -1.330021
     44          1           0       -4.770406    3.648994   -0.471642
     45          1           0       -3.394875    1.579398    0.370943
     46          1           0       -1.406981    3.921605    0.113215
     47          1           0        2.527687   -4.297843   -0.330894
     48          1           0        1.155480    2.655387    4.452284
 ---------------------------------------------------------------------
                    Distance matrix (angstroms):
                    1          2          3          4          5
     1  C    0.000000
     2  H    1.098640   0.000000
     3  H    1.099514   1.798580   0.000000
     4  C    3.395384   4.168371   4.022897   0.000000
     5  H    3.228601   3.979110   3.948216   1.106836   0.000000
     6  O    4.732352   5.553631   5.242364   1.396962   2.061240
     7  H    5.319009   6.020497   5.944220   1.939397   2.549467
     8  C    2.600032   3.530334   2.887723   1.529281   2.135167
     9  H    2.640686   3.717010   2.643913   2.201003   2.400439
    10  O    3.700503   4.536657   3.775827   2.387858   3.307997
    11  H    3.649905   4.415180   3.504878   3.228407   4.055276
    12  C    3.535082   3.952691   4.359507   1.526993   2.137338
    13  H    4.177578   4.589372   4.854506   2.136098   3.038961
    14  C    1.522419   2.153588   2.136455   2.375378   2.685765
    15  H    2.124358   2.492584   2.375526   3.208426   3.715275
    16  O    2.426841   2.620826   3.351431   2.288982   2.544558
    17  N    4.560259   4.800881   5.513446   2.495637   2.713291
    18  C    4.685249   4.861328   5.714647   3.029903   2.693984
    19  H    3.961299   4.200103   4.976152   2.781033   2.105829
    20  C    5.909885   5.971874   6.965119   4.305881   3.930106
    21  H    6.260714   6.283169   7.313530   4.964543   4.375874
    22  C    7.033087   7.050412   8.082224   5.169563   5.051847
    23  H    7.675257   7.558880   8.754157   6.142784   5.958774
    24  H    7.812930   7.947504   8.825270   5.547487   5.454420
    25  C    6.745187   6.754741   7.745323   4.832324   5.025247
    26  C    5.679917   5.783750   6.620109   3.700746   4.077048
    27  H    5.849292   5.950478   6.695483   3.963069   4.574662
    28  C    7.974823   7.917573   8.944740   6.097860   6.418349
    29  O    8.306232   8.301374   9.196066   6.310559   6.820211
    30  N    8.940548   8.786344   9.956581   7.243151   7.433232
    31  H    9.714094   9.523318  10.707794   8.064594   8.327222
    32  H    8.811742   8.578992   9.865331   7.377748   7.429273
    33  C    7.969952   8.746880   8.385584   4.689278   5.407537
    34  C    7.870340   8.387379   8.598468   4.649579   5.147789
    35  C    8.655925   9.020244   9.478661   5.671233   6.099830
    36  C   10.182488  10.365038  11.130665   7.536317   7.723533
    37  C    9.039481   9.335214   9.942068   6.196581   6.407981
    38  O    7.092821   7.667925   7.827719   3.820984   4.154361
    39  S    8.603873   9.211057   9.173328   5.360735   6.082401
    40  H    8.280195   9.093692   8.715009   4.935686   5.462909
    41  H    6.893031   7.684858   7.291854   3.665656   4.456490
    42  H   10.058864  10.143368  11.059229   7.676800   7.756276
    43  H   10.471493  10.620201  11.398420   7.872890   8.187227
    44  H   11.081024  11.307408  12.018255   8.324049   8.468931
    45  H    8.756106   9.098097   9.662918   5.900333   5.948397
    46  H    9.150532   9.467927   9.948284   6.272759   6.824177
    47  H    1.090000   1.791520   1.803183   3.222483   2.715212
    48  H    8.574389   9.387011   8.881270   5.432924   6.219091
                    6          7          8          9         10
     6  O    0.000000
     7  H    0.972991   0.000000
     8  C    2.487685   3.225078   0.000000
     9  H    2.965821   3.852013   1.105716   0.000000
    10  O    2.773065   3.418092   1.399850   2.069623   0.000000
    11  H    3.755021   4.389872   1.953835   2.431136   0.988960
    12  C    2.459702   2.434842   2.347920   3.322857   2.921282
    13  H    2.660755   2.533202   2.634850   3.717958   2.637888
    14  C    3.670662   4.175918   1.557914   2.212859   2.458952
    15  H    4.354050   4.821372   2.171129   2.845672   2.473785
    16  O    3.573193   3.758377   2.392762   3.246398   3.216696
    17  N    3.055982   2.621610   3.680011   4.546500   4.283409
    18  C    3.653139   3.318338   4.288038   4.920948   5.197015
    19  H    3.627643   3.574623   3.880989   4.320858   5.008181
    20  C    4.727937   4.230033   5.617070   6.229847   6.483563
    21  H    5.422638   5.019431   6.237868   6.711250   7.237691
    22  C    5.379855   4.667164   6.502317   7.256338   7.132848
    23  H    6.446842   5.759006   7.415910   8.162919   8.090653
    24  H    5.471195   4.664904   6.984747   7.697342   7.536319
    25  C    5.052471   4.298358   6.019281   6.929949   6.411160
    26  C    4.020355   3.365920   4.775317   5.742834   5.094138
    27  H    4.241662   3.630616   4.793113   5.848554   4.832178
    28  C    6.213288   5.395413   7.193132   8.171734   7.387409
    29  O    6.310606   5.484919   7.286847   8.320997   7.246629
    30  N    7.396134   6.573568   8.378199   9.321770   8.669402
    31  H    8.195312   7.360640   9.135487  10.117719   9.326253
    32  H    7.661738   6.896269   8.515395   9.409208   8.956375
    33  C    3.388466   2.992347   5.499356   5.995952   4.997222
    34  C    3.760655   2.823740   5.925526   6.655592   5.849580
    35  C    5.009476   4.038621   6.974881   7.789129   6.950766
    36  C    7.090820   6.134947   8.928536   9.731470   9.115024
    37  C    5.651049   4.696785   7.613071   8.372067   7.801004
    38  O    2.916245   2.013181   5.211030   5.828764   5.361738
    39  S    4.280707   3.539715   6.344294   7.054230   5.885486
    40  H    3.558348   3.194075   5.873835   6.234483   5.574049
    41  H    2.405754   2.151854   4.404942   4.927085   3.919117
    42  H    7.410594   6.489277   9.073175   9.873690   9.390662
    43  H    7.443506   6.476006   9.174389  10.052178   9.226526
    44  H    7.766400   6.818450   9.752991  10.500656   9.938974
    45  H    5.343455   4.449140   7.389274   8.040042   7.729424
    46  H    5.652381   4.702737   7.450515   8.339892   7.265506
    47  H    4.510301   5.112048   2.777402   2.604942   4.093038
    48  H    4.159850   3.914731   6.020366   6.464189   5.311611
                   11         12         13         14         15
    11  H    0.000000
    12  C    3.580329   0.000000
    13  H    3.253919   1.102362   0.000000
    14  C    2.553218   2.301811   2.733326   0.000000
    15  H    2.188770   2.918008   2.973623   1.101479   0.000000
    16  O    3.550411   1.407860   2.086813   1.424415   2.062999
    17  N    4.990532   1.426347   2.048953   3.564492   4.219606
    18  C    5.908322   2.441328   3.336909   4.100109   4.953919
    19  H    5.671699   2.588443   3.652471   3.664595   4.648039
    20  C    7.211741   3.681315   4.445293   5.403387   6.222675
    21  H    7.954576   4.528621   5.393975   5.994059   6.887706
    22  C    7.868315   4.311109   4.773262   6.310762   6.977242
    23  H    8.776806   5.209396   5.685580   7.068018   7.706578
    24  H    8.351849   4.895266   5.277113   7.023674   7.719239
    25  C    7.081052   3.690081   3.846918   5.783454   6.254576
    26  C    5.743444   2.446689   2.505990   4.577357   4.998815
    27  H    5.386737   2.622674   2.221631   4.585167   4.773392
    28  C    7.999210   4.873979   4.770016   6.927001   7.234130
    29  O    7.814191   5.081160   4.706748   7.106467   7.265868
    30  N    9.275666   6.034374   6.044398   8.021263   8.365557
    31  H    9.888231   6.803684   6.698275   8.749712   9.000203
    32  H    9.549738   6.178146   6.351374   8.045697   8.453856
    33  C    5.857683   5.140324   4.713143   6.697568   7.058420
    34  C    6.750961   4.469212   4.242700   6.638834   7.130942
    35  C    7.797579   5.164405   4.943021   7.443713   7.897415
    36  C    9.939615   6.860293   6.840901   9.145639   9.663692
    37  C    8.668780   5.684402   5.688557   7.977028   8.543056
    38  O    6.316323   3.900373   3.939626   5.990601   6.630877
    39  S    6.714833   5.317804   4.790366   7.245432   7.553525
    40  H    6.485778   5.564339   5.332939   7.130903   7.625530
    41  H    4.804749   4.190238   3.782144   5.620068   5.986075
    42  H   10.188298   6.905060   7.004959   9.130738   9.679619
    43  H    9.997096   7.069844   6.895416   9.344288   9.747332
    44  H   10.798215   7.776114   7.777257  10.064625  10.621755
    45  H    8.639795   5.584997   5.773517   7.813919   8.499149
    46  H    8.039922   5.616761   5.209214   7.853294   8.171119
    47  H    4.252147   3.621970   4.460519   2.138102   3.025040
    48  H    6.072705   5.924303   5.385561   7.279191   7.526559
                   16         17         18         19         20
    16  O    0.000000
    17  N    2.350348   0.000000
    18  C    2.935506   1.399031   0.000000
    19  H    2.747379   2.113809   1.089743   0.000000
    20  C    4.172037   2.396832   1.336472   2.123892   0.000000
    21  H    4.852443   3.370599   2.088106   2.430347   1.090121
    22  C    4.980664   2.885609   2.487546   3.491627   1.505494
    23  H    5.694507   3.808908   3.291300   4.192799   2.143253
    24  H    5.773799   3.505360   3.168699   4.133907   2.222783
    25  C    4.433691   2.396362   2.770255   3.845183   2.469779
    26  C    3.295317   1.390914   2.386061   3.335373   2.775705
    27  H    3.431663   2.122110   3.354421   4.190081   3.863220
    28  C    5.593921   3.739358   4.255336   5.322991   3.858114
    29  O    5.880799   4.191606   5.008015   6.049176   4.842124
    30  N    6.636072   4.799539   5.016970   6.064849   4.302020
    31  H    7.382389   5.650719   5.976135   7.022499   5.310824
    32  H    6.628198   4.889667   4.853587   5.834132   3.987855
    33  C    6.476601   5.297630   6.118620   6.520028   6.744312
    34  C    5.853934   3.874305   4.541794   5.306573   4.722475
    35  C    6.448442   4.268935   4.848441   5.792048   4.682806
    36  C    7.941591   5.632544   5.774583   6.792701   5.024190
    37  C    6.872131   4.546441   4.758031   5.724293   4.238433
    38  O    5.265671   3.330465   3.773325   4.391378   4.067657
    39  S    6.701031   5.111392   6.009133   6.680764   6.376810
    40  H    6.902319   5.600608   6.196632   6.536787   6.728697
    41  H    5.478387   4.542663   5.416513   5.725425   6.210072
    42  H    7.846768   5.573055   5.533425   6.550575   4.598592
    43  H    8.138286   5.922648   6.274963   7.334597   5.636171
    44  H    8.898189   6.562747   6.616845   7.585688   5.818228
    45  H    6.754035   4.426848   4.368391   5.229557   3.789238
    46  H    6.858151   4.816642   5.575168   6.554072   5.449668
    47  H    2.735899   4.455768   4.296837   3.401223   5.472181
    48  H    7.200697   6.228327   7.120573   7.484711   7.798227
                   21         22         23         24         25
    21  H    0.000000
    22  C    2.252495   0.000000
    23  H    2.504760   1.102402   0.000000
    24  H    2.791647   1.160740   1.804482   0.000000
    25  C    3.468900   1.506624   2.176994   2.151721   0.000000
    26  C    3.857998   2.492589   3.326941   3.110449   1.344866
    27  H    4.940375   3.493951   4.244306   4.034940   2.124274
    28  C    4.763509   2.590848   2.820766   2.927096   1.488924
    29  O    5.822532   3.677552   4.031395   3.877703   2.378328
    30  N    4.990460   2.891108   2.602756   3.164175   2.420182
    31  H    5.998132   3.907179   3.582053   4.119584   3.310360
    32  H    4.508243   2.694054   2.050386   3.161685   2.635384
    33  C    7.554579   6.713437   7.785497   6.311720   6.176629
    34  C    5.585130   4.278970   5.275294   3.731818   3.836597
    35  C    5.544169   3.794625   4.604780   3.128298   3.327489
    36  C    5.611615   3.719328   3.972460   2.835613   3.801898
    37  C    4.928140   3.208244   3.853413   2.266178   3.240401
    38  O    4.836283   3.998161   5.064408   3.523072   3.840913
    39  S    7.276357   5.949969   6.932888   5.459405   5.270897
    40  H    7.421403   6.779486   7.846054   6.259671   6.481190
    41  H    7.034614   6.349054   7.441895   6.121982   5.771079
    42  H    5.076710   3.215116   3.195311   2.454290   3.540644
    43  H    6.335080   4.250999   4.476299   3.571356   3.964652
    44  H    6.287304   4.604646   4.810234   3.601614   4.853412
    45  H    4.322962   3.049397   3.752473   1.970383   3.495779
    46  H    6.370839   4.427803   5.132989   3.897331   3.670353
    47  H    5.681472   6.739537   7.385916   7.456529   6.675810
    48  H    8.622397   7.753922   8.820250   7.365301   7.131583
                   26         27         28         29         30
    26  C    0.000000
    27  H    1.093521   0.000000
    28  C    2.432712   2.636303   0.000000
    29  O    2.811677   2.537507   1.224674   0.000000
    30  N    3.613317   3.941745   1.359993   2.256715   0.000000
    31  H    4.380128   4.509341   1.991670   2.411895   1.017712
    32  H    3.881827   4.383338   2.080005   3.148112   1.022887
    33  C    5.466448   5.368295   6.753659   6.416865   7.931319
    34  C    3.604508   3.795291   4.309820   4.199347   5.338988
    35  C    3.573172   3.788269   3.380328   3.285938   4.216906
    36  C    4.769713   5.212045   3.393736   3.736649   3.344183
    37  C    3.899851   4.400206   3.337740   3.650765   3.796092
    38  O    3.493895   3.924225   4.694879   4.832434   5.700938
    39  S    4.822590   4.652699   5.511708   5.042168   6.619957
    40  H    5.892654   5.980499   7.159052   6.970540   8.246523
    41  H    4.884733   4.780727   6.501706   6.228828   7.741930
    42  H    4.712792   5.277996   3.148272   3.795565   2.743881
    43  H    4.869917   5.095407   3.177540   3.211211   3.156543
    44  H    5.796275   6.258108   4.492881   4.799073   4.342163
    45  H    4.096407   4.787756   3.974170   4.480287   4.389171
    46  H    3.894421   3.832747   3.309350   2.849219   4.158169
    47  H    5.714145   6.068431   8.016052   8.463611   8.923977
    48  H    6.368333   6.143188   7.618534   7.160671   8.820000
                   31         32         33         34         35
    31  H    0.000000
    32  H    1.721159   0.000000
    33  C    8.501173   8.540609   0.000000
    34  C    5.958312   5.939415   2.761964   0.000000
    35  C    4.742160   4.913866   4.125023   1.473645   0.000000
    36  C    3.743943   3.908327   6.523810   3.844990   2.484566
    37  C    4.419000   4.329585   5.169047   2.455261   1.339668
    38  O    6.463926   6.121715   2.868073   1.219438   2.391698
    39  S    7.068559   7.352347   1.808816   1.764702   2.698299
    40  H    8.881587   8.789295   1.098687   2.935277   4.313624
    41  H    8.366255   8.280177   1.098702   2.920389   4.334928
    42  H    3.232538   3.092043   7.292337   4.544419   3.258356
    43  H    3.289511   3.934674   6.666764   4.082228   2.611049
    44  H    4.667482   4.834174   6.924528   4.396075   3.150711
    45  H    5.146375   4.714971   5.190529   2.639401   2.090960
    46  H    4.465024   5.013564   4.473070   2.201631   1.097045
    47  H    9.769286   8.737177   7.873731   7.700181   8.513018
    48  H    9.324838   9.478874   1.090000   3.738961   5.005111
                   36         37         38         39         40
    36  C    0.000000
    37  C    1.495387   0.000000
    38  O    4.411785   2.919549   0.000000
    39  S    5.087006   3.913051   2.627942   0.000000
    40  H    6.532043   5.143351   2.782848   2.400643   0.000000
    41  H    6.760966   5.350924   2.745511   2.412939   1.785063
    42  H    1.095574   2.153284   4.922732   5.946313   7.293454
    43  H    1.098409   2.146680   4.865238   5.057244   6.833612
    44  H    1.103467   2.146641   4.947956   5.517340   6.804154
    45  H    2.244352   1.095299   2.645814   4.262883   4.968379
    46  H    2.732022   2.128165   3.296766   2.794064   4.856946
    47  H    9.952265   8.780108   6.798292   8.564349   8.041799
    48  H    7.404649   6.115720   3.953593   2.413348   1.786624
                   41         42         43         44         45
    41  H    0.000000
    42  H    7.404761   0.000000
    43  H    6.924501   1.762755   0.000000
    44  H    7.293903   1.775913   1.796335   0.000000
    45  H    5.318113   2.614669   3.128311   2.623979   0.000000
    46  H    4.733688   3.558005   2.391336   3.424763   3.082868
    47  H    6.830713   9.804600  10.350795  10.790468   8.373247
    48  H    1.791568   8.226646   7.457699   7.768425   6.206515
                   46         47         48
    46  H    0.000000
    47  H    9.123495   0.000000
    48  H    5.195867   8.550388   0.000000
 Symmetry turned off by external request.
 Stoichiometry    C16H24N2O5S
 Framework group  C1[X(C16H24N2O5S)]
 Deg. of freedom   138
 Full point group                 C1      NOp   1
 Rotational constants (GHZ):           0.2876310           0.1636288           0.1215418
 Leave Link  202 at Sun Feb 19 04:03:05 2023, MaxMem=  2684354560 cpu:               0.2 elap:               0.0
 (Enter /storage/apps/GAUSSIAN/G16_RevA03/g16/l301.exe)
 Standard basis: def2TZVP (5D, 7F)
 Ernie: Thresh=  0.10000D-02 Tol=  0.10000D-05 Strict=F.
   894 basis functions,  1434 primitive gaussians,  1014 cartesian basis functions
    95 alpha electrons       95 beta electrons
       nuclear repulsion energy      2419.1048479578 Hartrees.
 IExCor= 4336 DFT=T Ex+Corr=M062X ExCW=0 ScaHFX=  0.540000
 ScaDFX=  1.000000  1.000000  1.000000  1.000000 ScalE2=  1.000000  1.000000
 IRadAn=      5 IRanWt=     -1 IRanGd=            0 ICorTp=0 IEmpDi=131
 NAtoms=   48 NActive=   48 NUniq=   48 SFac= 1.00D+00 NAtFMM=   60 NAOKFM=F Big=F
 Integral buffers will be    131072 words long.
 Raffenetti 2 integral format.
 Two-electron integral symmetry is turned off.
 R6Disp:  Grimme-D3 Dispersion energy=       -0.0041312730 Hartrees.
 Nuclear repulsion after empirical dispersion term =     2419.1007166849 Hartrees.
 Leave Link  301 at Sun Feb 19 04:03:05 2023, MaxMem=  2684354560 cpu:               0.8 elap:               0.1
 (Enter /storage/apps/GAUSSIAN/G16_RevA03/g16/l302.exe)
 NPDir=0 NMtPBC=     1 NCelOv=     1 NCel=       1 NClECP=     1 NCelD=      1
         NCelK=      1 NCelE2=     1 NClLst=     1 CellRange=     0.0.
 One-electron integrals computed using PRISM.
   1 Symmetry operations used in ECPInt.
 ECPInt:  NShTT=   65703 NPrTT=  200010 LenC2=   55769 LenP2D=  118014.
 LDataN:  DoStor=T MaxTD1= 6 Len=  172
 NBasis=   894 RedAO= T EigKep=  3.13D-05  NBF=   894
 NBsUse=   894 1.00D-06 EigRej= -1.00D+00 NBFU=   894
 Precomputing XC quadrature grid using
 IXCGrd= 4 IRadAn=           5 IRanWt=          -1 IRanGd=           0 AccXCQ= 0.00D+00.
 Generated NRdTot=       0 NPtTot=           0 NUsed=           0 NTot=          32
 NSgBfM=  1000  1000  1000  1000  1000 MxSgAt=    48 MxSgA2=    48.
 Leave Link  302 at Sun Feb 19 04:03:06 2023, MaxMem=  2684354560 cpu:              18.5 elap:               1.2
 (Enter /storage/apps/GAUSSIAN/G16_RevA03/g16/l303.exe)
 DipDrv:  MaxL=1.
 Leave Link  303 at Sun Feb 19 04:03:06 2023, MaxMem=  2684354560 cpu:               2.1 elap:               0.2
 (Enter /storage/apps/GAUSSIAN/G16_RevA03/g16/l401.exe)
 ExpMin= 9.52D-02 ExpMax= 6.07D+04 ExpMxC= 2.07D+03 IAcc=3 IRadAn=         5 AccDes= 0.00D+00
 Harris functional with IExCor= 1009 and IRadAn=       5 diagonalized for initial guess.
 HarFok:  IExCor= 1009 AccDes= 0.00D+00 IRadAn=         5 IDoV= 1 UseB2=F ITyADJ=14
 ICtDFT=  3500011 ScaDFX=  1.000000  1.000000  1.000000  1.000000
 FoFCou: FMM=F IPFlag=           0 FMFlag=      100000 FMFlg1=           0
         NFxFlg=           0 DoJE=T BraDBF=F KetDBF=T FulRan=T
         wScrn=  0.000000 ICntrl=       500 IOpCl=  0 I1Cent=   200000004 NGrid=           0
         NMat0=    1 NMatS0=      1 NMatT0=    0 NMatD0=    1 NMtDS0=    0 NMtDT0=    0
 Symmetry not used in FoFCou.
 Harris En= -1507.22112029838    
 JPrj=0 DoOrth=F DoCkMO=F.
 Leave Link  401 at Sun Feb 19 04:03:10 2023, MaxMem=  2684354560 cpu:              59.3 elap:               3.7
 (Enter /storage/apps/GAUSSIAN/G16_RevA03/g16/l502.exe)
 Two-electron integral symmetry not used.
 Closed shell SCF:
 Using DIIS extrapolation, IDIIS=  1040.
 NGot=  2684354560 LenX=  2682275214 LenY=  2681246004
 Requested convergence on RMS density matrix=1.00D-08 within 128 cycles.
 Requested convergence on MAX density matrix=1.00D-06.
 Requested convergence on             energy=1.00D-06.
 No special actions if energy rises.
 Fock matrices will be formed incrementally for  20 cycles.
 Integral accuracy reduced to 1.0D-05 until final iterations.

 Cycle   1  Pass 0  IDiag  1:
 FoFJK:  IHMeth= 1 ICntrl=       0 DoSepK=F KAlg= 0 I1Cent=           0 FoldK=F
 IRaf= 770000000 NMat=       1 IRICut=       1 DoRegI=T DoRafI=F ISym2E= 0 IDoP0=0 IntGTp=1.
 FoFCou: FMM=F IPFlag=           0 FMFlag=      100000 FMFlg1=           0
         NFxFlg=           0 DoJE=F BraDBF=F KetDBF=F FulRan=T
         wScrn=  0.000000 ICntrl=         0 IOpCl=  0 I1Cent=           0 NGrid=           0
         NMat0=    1 NMatS0=      1 NMatT0=    0 NMatD0=    1 NMtDS0=    0 NMtDT0=    0
 Symmetry not used in FoFCou.
 E= -1507.15955326615    
 DIIS: error= 1.51D-02 at cycle   1 NSaved=   1.
 NSaved= 1 IEnMin= 1 EnMin= -1507.15955326615     IErMin= 1 ErrMin= 1.51D-02
 ErrMax= 1.51D-02  0.00D+00 EMaxC= 1.00D-01 BMatC= 9.94D-01 BMatP= 9.94D-01
 IDIUse=3 WtCom= 8.49D-01 WtEn= 1.51D-01
 Coeff-Com:  0.100D+01
 Coeff-En:   0.100D+01
 Coeff:      0.100D+01
 Gap=     0.370 Goal=   None    Shift=    0.000
 GapD=    0.370 DampG=1.000 DampE=0.500 DampFc=0.5000 IDamp=-1.
 Damping current iteration by 5.00D-01
 RMSDP=4.56D-03 MaxDP=1.55D+00              OVMax= 2.04D-01

 Cycle   2  Pass 0  IDiag  1:
 RMSU=  2.27D-03    CP:  1.03D+00
 E= -1507.49119274343     Delta-E=       -0.331639477283 Rises=F Damp=T
 DIIS: error= 5.13D-03 at cycle   2 NSaved=   2.
 NSaved= 2 IEnMin= 2 EnMin= -1507.49119274343     IErMin= 2 ErrMin= 5.13D-03
 ErrMax= 5.13D-03  0.00D+00 EMaxC= 1.00D-01 BMatC= 9.12D-02 BMatP= 9.94D-01
 IDIUse=3 WtCom= 9.49D-01 WtEn= 5.13D-02
 Coeff-Com:  0.738D-02 0.993D+00
 Coeff-En:   0.634D-01 0.937D+00
 Coeff:      0.103D-01 0.990D+00
 Gap=     0.349 Goal=   None    Shift=    0.000
 RMSDP=1.43D-03 MaxDP=5.15D-01 DE=-3.32D-01 OVMax= 1.71D-01

 Cycle   3  Pass 0  IDiag  1:
 RMSU=  1.04D-03    CP:  1.01D+00  5.73D-01
 E= -1507.85455745924     Delta-E=       -0.363364715808 Rises=F Damp=F
 DIIS: error= 5.93D-03 at cycle   3 NSaved=   3.
 NSaved= 3 IEnMin= 3 EnMin= -1507.85455745924     IErMin= 2 ErrMin= 5.13D-03
 ErrMax= 5.93D-03  0.00D+00 EMaxC= 1.00D-01 BMatC= 5.95D-02 BMatP= 9.12D-02
 IDIUse=3 WtCom= 9.41D-01 WtEn= 5.93D-02
 Coeff-Com: -0.766D-01 0.465D+00 0.612D+00
 Coeff-En:   0.000D+00 0.000D+00 0.100D+01
 Coeff:     -0.721D-01 0.437D+00 0.635D+00
 Gap=     0.223 Goal=   None    Shift=    0.000
 RMSDP=3.79D-04 MaxDP=5.28D-02 DE=-3.63D-01 OVMax= 7.12D-02

 Cycle   4  Pass 0  IDiag  1:
 RMSU=  3.23D-04    CP:  1.01D+00  6.53D-01  9.32D-01
 E= -1507.89310805717     Delta-E=       -0.038550597936 Rises=F Damp=F
 DIIS: error= 2.96D-03 at cycle   4 NSaved=   4.
 NSaved= 4 IEnMin= 4 EnMin= -1507.89310805717     IErMin= 4 ErrMin= 2.96D-03
 ErrMax= 2.96D-03  0.00D+00 EMaxC= 1.00D-01 BMatC= 1.16D-02 BMatP= 5.95D-02
 IDIUse=3 WtCom= 9.70D-01 WtEn= 2.96D-02
 Coeff-Com: -0.352D-01 0.959D-01 0.342D+00 0.597D+00
 Coeff-En:   0.000D+00 0.000D+00 0.136D+00 0.864D+00
 Coeff:     -0.342D-01 0.930D-01 0.336D+00 0.605D+00
 Gap=     0.224 Goal=   None    Shift=    0.000
 RMSDP=1.21D-04 MaxDP=1.39D-02 DE=-3.86D-02 OVMax= 1.82D-02

 Cycle   5  Pass 0  IDiag  1:
 RMSU=  7.87D-05    CP:  1.01D+00  6.48D-01  9.60D-01  7.34D-01
 E= -1507.90164122745     Delta-E=       -0.008533170276 Rises=F Damp=F
 DIIS: error= 3.83D-04 at cycle   5 NSaved=   5.
 NSaved= 5 IEnMin= 5 EnMin= -1507.90164122745     IErMin= 5 ErrMin= 3.83D-04
 ErrMax= 3.83D-04  0.00D+00 EMaxC= 1.00D-01 BMatC= 4.52D-04 BMatP= 1.16D-02
 IDIUse=3 WtCom= 9.96D-01 WtEn= 3.83D-03
 Coeff-Com: -0.100D-01 0.167D-01 0.118D+00 0.269D+00 0.607D+00
 Coeff-En:   0.000D+00 0.000D+00 0.000D+00 0.000D+00 0.100D+01
 Coeff:     -0.100D-01 0.166D-01 0.117D+00 0.268D+00 0.608D+00
 Gap=     0.223 Goal=   None    Shift=    0.000
 RMSDP=5.40D-05 MaxDP=1.70D-02 DE=-8.53D-03 OVMax= 4.42D-03

 Cycle   6  Pass 0  IDiag  1:
 RMSU=  3.33D-05    CP:  1.01D+00  6.31D-01  9.72D-01  7.61D-01  8.72D-01
 E= -1507.90199690949     Delta-E=       -0.000355682039 Rises=F Damp=F
 DIIS: error= 1.69D-04 at cycle   6 NSaved=   6.
 NSaved= 6 IEnMin= 6 EnMin= -1507.90199690949     IErMin= 6 ErrMin= 1.69D-04
 ErrMax= 1.69D-04  0.00D+00 EMaxC= 1.00D-01 BMatC= 5.87D-05 BMatP= 4.52D-04
 IDIUse=3 WtCom= 9.98D-01 WtEn= 1.69D-03
 Coeff-Com:  0.356D-03-0.485D-02 0.101D-01 0.410D-01 0.276D+00 0.677D+00
 Coeff-En:   0.000D+00 0.000D+00 0.000D+00 0.000D+00 0.000D+00 0.100D+01
 Coeff:      0.356D-03-0.484D-02 0.101D-01 0.410D-01 0.276D+00 0.678D+00
 Gap=     0.224 Goal=   None    Shift=    0.000
 RMSDP=2.03D-05 MaxDP=1.98D-03 DE=-3.56D-04 OVMax= 2.40D-03

 Cycle   7  Pass 0  IDiag  1:
 RMSU=  1.84D-05    CP:  1.01D+00  6.31D-01  9.77D-01  7.68D-01  9.55D-01
                    CP:  9.95D-01
 E= -1507.90207175526     Delta-E=       -0.000074845772 Rises=F Damp=F
 DIIS: error= 5.86D-05 at cycle   7 NSaved=   7.
 NSaved= 7 IEnMin= 7 EnMin= -1507.90207175526     IErMin= 7 ErrMin= 5.86D-05
 ErrMax= 5.86D-05  0.00D+00 EMaxC= 1.00D-01 BMatC= 8.61D-06 BMatP= 5.87D-05
 IDIUse=1 WtCom= 1.00D+00 WtEn= 0.00D+00
 Coeff-Com:  0.176D-02-0.481D-02-0.121D-01-0.251D-01 0.145D-01 0.271D+00
 Coeff-Com:  0.755D+00
 Coeff:      0.176D-02-0.481D-02-0.121D-01-0.251D-01 0.145D-01 0.271D+00
 Coeff:      0.755D+00
 Gap=     0.224 Goal=   None    Shift=    0.000
 RMSDP=1.84D-05 MaxDP=4.70D-03 DE=-7.48D-05 OVMax= 2.10D-03

 Cycle   8  Pass 0  IDiag  1:
 RMSU=  1.09D-05    CP:  1.01D+00  6.27D-01  9.79D-01  7.74D-01  1.03D+00
                    CP:  1.17D+00  1.30D+00
 E= -1507.90208947605     Delta-E=       -0.000017720786 Rises=F Damp=F
 DIIS: error= 4.02D-05 at cycle   8 NSaved=   8.
 NSaved= 8 IEnMin= 8 EnMin= -1507.90208947605     IErMin= 8 ErrMin= 4.02D-05
 ErrMax= 4.02D-05  0.00D+00 EMaxC= 1.00D-01 BMatC= 2.01D-06 BMatP= 8.61D-06
 IDIUse=1 WtCom= 1.00D+00 WtEn= 0.00D+00
 Coeff-Com:  0.840D-03-0.149D-02-0.714D-02-0.210D-01-0.431D-01 0.564D-03
 Coeff-Com:  0.356D+00 0.715D+00
 Coeff:      0.840D-03-0.149D-02-0.714D-02-0.210D-01-0.431D-01 0.564D-03
 Coeff:      0.356D+00 0.715D+00
 Gap=     0.224 Goal=   None    Shift=    0.000
 RMSDP=1.83D-05 MaxDP=2.89D-03 DE=-1.77D-05 OVMax= 6.76D-04

 Cycle   9  Pass 0  IDiag  1:
 RMSU=  1.01D-05    CP:  1.01D+00  6.26D-01  9.81D-01  7.76D-01  1.08D+00
                    CP:  1.27D+00  1.92D+00  1.75D+00
 E= -1507.90208887165     Delta-E=        0.000000604400 Rises=F Damp=F
 DIIS: error= 2.23D-05 at cycle   9 NSaved=   9.
 NSaved= 9 IEnMin= 8 EnMin= -1507.90208947605     IErMin= 9 ErrMin= 2.23D-05
 ErrMax= 2.23D-05  0.00D+00 EMaxC= 1.00D-01 BMatC= 4.18D-07 BMatP= 2.01D-06
 IDIUse=1 WtCom= 1.00D+00 WtEn= 0.00D+00
 Coeff-Com:  0.220D-03-0.259D-03-0.175D-02-0.730D-02-0.198D-01-0.260D-01
 Coeff-Com:  0.916D-01 0.321D+00 0.642D+00
 Coeff:      0.220D-03-0.259D-03-0.175D-02-0.730D-02-0.198D-01-0.260D-01
 Coeff:      0.916D-01 0.321D+00 0.642D+00
 Gap=     0.224 Goal=   None    Shift=    0.000
 RMSDP=2.19D-05 MaxDP=3.69D-03 DE= 6.04D-07 OVMax= 2.17D-04

 Cycle  10  Pass 0  IDiag  1:
 RMSU=  4.58D-06    CP:  1.01D+00  6.26D-01  9.83D-01  7.80D-01  1.14D+00
                    CP:  1.34D+00  2.58D+00  2.75D+00  2.27D+00
 E= -1507.90208967379     Delta-E=       -0.000000802139 Rises=F Damp=F
 DIIS: error= 3.01D-05 at cycle  10 NSaved=  10.
 NSaved=10 IEnMin=10 EnMin= -1507.90208967379     IErMin= 9 ErrMin= 2.23D-05
 ErrMax= 3.01D-05  0.00D+00 EMaxC= 1.00D-01 BMatC= 5.74D-07 BMatP= 4.18D-07
 IDIUse=1 WtCom= 1.00D+00 WtEn= 0.00D+00
 Coeff-Com:  0.236D-03-0.214D-03-0.194D-02-0.868D-02-0.254D-01-0.389D-01
 Coeff-Com:  0.995D-01 0.411D+00 0.965D+00-0.400D+00
 Coeff:      0.236D-03-0.214D-03-0.194D-02-0.868D-02-0.254D-01-0.389D-01
 Coeff:      0.995D-01 0.411D+00 0.965D+00-0.400D+00
 Gap=     0.224 Goal=   None    Shift=    0.000
 RMSDP=1.86D-05 MaxDP=3.34D-03 DE=-8.02D-07 OVMax= 3.13D-05

 Cycle  11  Pass 0  IDiag  1:
 RMSU=  3.30D-06    CP:  1.01D+00  6.24D-01  9.82D-01  7.77D-01  1.10D+00
                    CP:  1.31D+00  2.06D+00  2.07D+00  1.10D+00 -8.48D-02
 E= -1507.90208346850     Delta-E=        0.000006205287 Rises=F Damp=F
 DIIS: error= 2.31D-05 at cycle  11 NSaved=  11.
 NSaved=11 IEnMin=10 EnMin= -1507.90208967379     IErMin= 9 ErrMin= 2.23D-05
 ErrMax= 2.31D-05  0.00D+00 EMaxC= 1.00D-01 BMatC= 2.97D-07 BMatP= 4.18D-07
 IDIUse=1 WtCom= 1.00D+00 WtEn= 0.00D+00
 Coeff-Com: -0.712D-04 0.280D-03 0.842D-03-0.302D-03-0.624D-02-0.311D-01
 Coeff-Com: -0.319D-01 0.911D-01 0.741D+00-0.146D+01 0.170D+01
 Coeff:     -0.712D-04 0.280D-03 0.842D-03-0.302D-03-0.624D-02-0.311D-01
 Coeff:     -0.319D-01 0.911D-01 0.741D+00-0.146D+01 0.170D+01
 Gap=     0.224 Goal=   None    Shift=    0.000
 RMSDP=2.91D-05 MaxDP=6.92D-03 DE= 6.21D-06 OVMax= 1.19D-04

 Cycle  12  Pass 0  IDiag  1:
 RMSU=  8.54D-06    CP:  1.01D+00  6.18D-01  9.81D-01  7.73D-01  1.08D+00
                    CP:  1.30D+00  1.46D+00  1.65D+00 -4.11D-01 -2.33D+00
                    CP:  3.00D+00
 E= -1507.90206013404     Delta-E=        0.000023334457 Rises=F Damp=F
 DIIS: error= 1.76D-05 at cycle  12 NSaved=  12.
 NSaved=12 IEnMin=10 EnMin= -1507.90208967379     IErMin=12 ErrMin= 1.76D-05
 ErrMax= 1.76D-05  0.00D+00 EMaxC= 1.00D-01 BMatC= 1.45D-07 BMatP= 2.97D-07
 IDIUse=1 WtCom= 1.00D+00 WtEn= 0.00D+00
 Coeff-Com: -0.633D-04 0.250D-03 0.769D-03-0.263D-03-0.555D-02-0.279D-01
 Coeff-Com: -0.287D-01 0.804D-01 0.664D+00-0.132D+01 0.153D+01 0.103D+00
 Coeff:     -0.633D-04 0.250D-03 0.769D-03-0.263D-03-0.555D-02-0.279D-01
 Coeff:     -0.287D-01 0.804D-01 0.664D+00-0.132D+01 0.153D+01 0.103D+00
 Gap=     0.224 Goal=   None    Shift=    0.000
 RMSDP=2.23D-06 MaxDP=4.80D-04 DE= 2.33D-05 OVMax= 5.73D-06

 Initial convergence to 1.0D-05 achieved.  Increase integral accuracy.
 Cycle  13  Pass 1  IDiag  1:
 E= -1507.90192265553     Delta-E=        0.000137478516 Rises=F Damp=F
 DIIS: error= 3.48D-04 at cycle   1 NSaved=   1.
 NSaved= 1 IEnMin= 1 EnMin= -1507.90192265553     IErMin= 1 ErrMin= 3.48D-04
 ErrMax= 3.48D-04  0.00D+00 EMaxC= 1.00D-01 BMatC= 8.52D-05 BMatP= 8.52D-05
 IDIUse=3 WtCom= 9.97D-01 WtEn= 3.48D-03
 Coeff-Com:  0.100D+01
 Coeff-En:   0.100D+01
 Coeff:      0.100D+01
 Gap=     0.224 Goal=   None    Shift=    0.000
 RMSDP=2.23D-06 MaxDP=4.80D-04 DE= 1.37D-04 OVMax= 9.81D-04

 Cycle  14  Pass 1  IDiag  1:
 RMSU=  4.46D-04    CP:  9.95D-01
 E= -1507.90198043639     Delta-E=       -0.000057780860 Rises=F Damp=F
 DIIS: error= 7.68D-06 at cycle   2 NSaved=   2.
 NSaved= 2 IEnMin= 2 EnMin= -1507.90198043639     IErMin= 2 ErrMin= 7.68D-06
 ErrMax= 7.68D-06  0.00D+00 EMaxC= 1.00D-01 BMatC= 6.84D-08 BMatP= 8.52D-05
 IDIUse=1 WtCom= 1.00D+00 WtEn= 0.00D+00
 Coeff-Com: -0.171D-01 0.102D+01
 Coeff:     -0.171D-01 0.102D+01
 Gap=     0.224 Goal=   None    Shift=    0.000
 RMSDP=1.59D-05 MaxDP=1.65D-03 DE=-5.78D-05 OVMax= 6.71D-05

 Cycle  15  Pass 1  IDiag  1:
 RMSU=  4.94D-06    CP:  9.94D-01  1.03D+00
 E= -1507.90198051400     Delta-E=       -0.000000077615 Rises=F Damp=F
 DIIS: error= 2.96D-06 at cycle   3 NSaved=   3.
 NSaved= 3 IEnMin= 3 EnMin= -1507.90198051400     IErMin= 3 ErrMin= 2.96D-06
 ErrMax= 2.96D-06  0.00D+00 EMaxC= 1.00D-01 BMatC= 1.83D-08 BMatP= 6.84D-08
 IDIUse=1 WtCom= 1.00D+00 WtEn= 0.00D+00
 Coeff-Com: -0.657D-02 0.366D+00 0.640D+00
 Coeff:     -0.657D-02 0.366D+00 0.640D+00
 Gap=     0.224 Goal=   None    Shift=    0.000
 RMSDP=5.04D-07 MaxDP=6.27D-05 DE=-7.76D-08 OVMax= 2.69D-05

 Cycle  16  Pass 1  IDiag  1:
 RMSU=  3.59D-07    CP:  9.94D-01  1.03D+00  1.04D+00
 E= -1507.90198052624     Delta-E=       -0.000000012242 Rises=F Damp=F
 DIIS: error= 1.13D-06 at cycle   4 NSaved=   4.
 NSaved= 4 IEnMin= 4 EnMin= -1507.90198052624     IErMin= 4 ErrMin= 1.13D-06
 ErrMax= 1.13D-06  0.00D+00 EMaxC= 1.00D-01 BMatC= 3.89D-09 BMatP= 1.83D-08
 IDIUse=1 WtCom= 1.00D+00 WtEn= 0.00D+00
 Coeff-Com: -0.458D-03 0.164D-01 0.308D+00 0.677D+00
 Coeff:     -0.458D-03 0.164D-01 0.308D+00 0.677D+00
 Gap=     0.224 Goal=   None    Shift=    0.000
 RMSDP=2.72D-07 MaxDP=5.39D-05 DE=-1.22D-08 OVMax= 1.18D-05

 Cycle  17  Pass 1  IDiag  1:
 RMSU=  1.43D-07    CP:  9.94D-01  1.03D+00  1.07D+00  9.16D-01
 E= -1507.90198052899     Delta-E=       -0.000000002744 Rises=F Damp=F
 DIIS: error= 4.47D-07 at cycle   5 NSaved=   5.
 NSaved= 5 IEnMin= 5 EnMin= -1507.90198052899     IErMin= 5 ErrMin= 4.47D-07
 ErrMax= 4.47D-07  0.00D+00 EMaxC= 1.00D-01 BMatC= 4.81D-10 BMatP= 3.89D-09
 IDIUse=1 WtCom= 1.00D+00 WtEn= 0.00D+00
 Coeff-Com:  0.382D-03-0.261D-01 0.100D+00 0.352D+00 0.573D+00
 Coeff:      0.382D-03-0.261D-01 0.100D+00 0.352D+00 0.573D+00
 Gap=     0.224 Goal=   None    Shift=    0.000
 RMSDP=5.82D-08 MaxDP=8.88D-06 DE=-2.74D-09 OVMax= 4.17D-06

 Cycle  18  Pass 1  IDiag  1:
 RMSU=  3.32D-08    CP:  9.94D-01  1.03D+00  1.07D+00  1.01D+00  9.94D-01
 E= -1507.90198052943     Delta-E=       -0.000000000442 Rises=F Damp=F
 DIIS: error= 9.64D-08 at cycle   6 NSaved=   6.
 NSaved= 6 IEnMin= 6 EnMin= -1507.90198052943     IErMin= 6 ErrMin= 9.64D-08
 ErrMax= 9.64D-08  0.00D+00 EMaxC= 1.00D-01 BMatC= 1.67D-11 BMatP= 4.81D-10
 IDIUse=1 WtCom= 1.00D+00 WtEn= 0.00D+00
 Coeff-Com:  0.141D-03-0.844D-02 0.182D-02 0.389D-01 0.155D+00 0.812D+00
 Coeff:      0.141D-03-0.844D-02 0.182D-02 0.389D-01 0.155D+00 0.812D+00
 Gap=     0.224 Goal=   None    Shift=    0.000
 RMSDP=1.69D-08 MaxDP=1.73D-06 DE=-4.42D-10 OVMax= 2.19D-06

 Cycle  19  Pass 1  IDiag  1:
 RMSU=  9.34D-09    CP:  9.94D-01  1.03D+00  1.07D+00  1.02D+00  1.08D+00
                    CP:  1.06D+00
 E= -1507.90198052941     Delta-E=        0.000000000020 Rises=F Damp=F
 DIIS: error= 6.69D-08 at cycle   7 NSaved=   7.
 NSaved= 7 IEnMin= 6 EnMin= -1507.90198052943     IErMin= 7 ErrMin= 6.69D-08
 ErrMax= 6.69D-08  0.00D+00 EMaxC= 1.00D-01 BMatC= 6.57D-12 BMatP= 1.67D-11
 IDIUse=1 WtCom= 1.00D+00 WtEn= 0.00D+00
 Coeff-Com: -0.103D-04 0.133D-02-0.200D-01-0.555D-01-0.466D-01 0.412D+00
 Coeff-Com:  0.709D+00
 Coeff:     -0.103D-04 0.133D-02-0.200D-01-0.555D-01-0.466D-01 0.412D+00
 Coeff:      0.709D+00
 Gap=     0.224 Goal=   None    Shift=    0.000
 RMSDP=8.77D-09 MaxDP=9.36D-07 DE= 1.96D-11 OVMax= 1.36D-06

 SCF Done:  E(RM062X) =  -1507.90198053     A.U. after   19 cycles
            NFock= 19  Conv=0.88D-08     -V/T= 2.0041
 KE= 1.501792354537D+03 PE=-8.376967815272D+03 EE= 2.948172763522D+03
 Leave Link  502 at Sun Feb 19 04:11:03 2023, MaxMem=  2684354560 cpu:            7561.4 elap:             473.2
 (Enter /storage/apps/GAUSSIAN/G16_RevA03/g16/l601.exe)
 Copying SCF densities to generalized density rwf, IOpCl= 0 IROHF=0.

 **********************************************************************

            Population analysis using the SCF density.

 **********************************************************************

 Alpha  occ. eigenvalues --  -89.90834 -19.63958 -19.63612 -19.62157 -19.61791
 Alpha  occ. eigenvalues --  -19.58548 -14.79049 -14.76877 -10.65000 -10.64092
 Alpha  occ. eigenvalues --  -10.62902 -10.60115 -10.59819 -10.59280 -10.58498
 Alpha  occ. eigenvalues --  -10.57439 -10.56084 -10.55816 -10.55524 -10.54498
 Alpha  occ. eigenvalues --  -10.53999 -10.53835 -10.53783 -10.53607  -8.26755
 Alpha  occ. eigenvalues --   -6.18693  -6.18468  -6.18268  -1.19732  -1.17149
 Alpha  occ. eigenvalues --   -1.15717  -1.15436  -1.13951  -1.07989  -1.01358
 Alpha  occ. eigenvalues --   -0.91851  -0.91163  -0.88509  -0.88264  -0.86956
 Alpha  occ. eigenvalues --   -0.85866  -0.81242  -0.78763  -0.74954  -0.74870
 Alpha  occ. eigenvalues --   -0.72799  -0.70269  -0.68283  -0.66365  -0.66280
 Alpha  occ. eigenvalues --   -0.63345  -0.62626  -0.61161  -0.60358  -0.59692
 Alpha  occ. eigenvalues --   -0.57514  -0.56180  -0.55498  -0.54574  -0.53766
 Alpha  occ. eigenvalues --   -0.52955  -0.52805  -0.51811  -0.50874  -0.50542
 Alpha  occ. eigenvalues --   -0.50223  -0.49607  -0.49059  -0.48896  -0.48437
 Alpha  occ. eigenvalues --   -0.48155  -0.47456  -0.46976  -0.46944  -0.46452
 Alpha  occ. eigenvalues --   -0.46249  -0.44885  -0.44330  -0.43832  -0.43011
 Alpha  occ. eigenvalues --   -0.42360  -0.42098  -0.41334  -0.40032  -0.37874
 Alpha  occ. eigenvalues --   -0.35572  -0.34984  -0.34703  -0.34014  -0.33968
 Alpha  occ. eigenvalues --   -0.32771  -0.32200  -0.31762  -0.29886  -0.24686
 Alpha virt. eigenvalues --   -0.02240   0.01079   0.04805   0.04990   0.05682
 Alpha virt. eigenvalues --    0.06483   0.06623   0.07799   0.08697   0.08748
 Alpha virt. eigenvalues --    0.08960   0.09574   0.10066   0.10646   0.11377
 Alpha virt. eigenvalues --    0.11778   0.12379   0.12692   0.12887   0.13273
 Alpha virt. eigenvalues --    0.13754   0.13913   0.14297   0.14693   0.15183
 Alpha virt. eigenvalues --    0.15744   0.16131   0.16444   0.16834   0.17713
 Alpha virt. eigenvalues --    0.18215   0.18808   0.19423   0.19627   0.20149
 Alpha virt. eigenvalues --    0.20911   0.21159   0.21694   0.22052   0.22609
 Alpha virt. eigenvalues --    0.22811   0.23196   0.23928   0.24147   0.24748
 Alpha virt. eigenvalues --    0.25027   0.25294   0.25821   0.26469   0.26848
 Alpha virt. eigenvalues --    0.27079   0.27501   0.27802   0.28506   0.28758
 Alpha virt. eigenvalues --    0.29346   0.29692   0.29877   0.31031   0.31501
 Alpha virt. eigenvalues --    0.31682   0.31973   0.32331   0.32515   0.33357
 Alpha virt. eigenvalues --    0.33761   0.34237   0.34708   0.35465   0.35840
 Alpha virt. eigenvalues --    0.36732   0.37653   0.37870   0.38006   0.38349
 Alpha virt. eigenvalues --    0.38827   0.39046   0.39407   0.39840   0.40345
 Alpha virt. eigenvalues --    0.40811   0.41156   0.41220   0.41484   0.41744
 Alpha virt. eigenvalues --    0.42427   0.42896   0.43237   0.43367   0.43531
 Alpha virt. eigenvalues --    0.44063   0.44177   0.44619   0.45321   0.45495
 Alpha virt. eigenvalues --    0.45816   0.46332   0.46532   0.47085   0.47764
 Alpha virt. eigenvalues --    0.48068   0.48496   0.48832   0.49162   0.49214
 Alpha virt. eigenvalues --    0.49668   0.50048   0.50307   0.50517   0.50985
 Alpha virt. eigenvalues --    0.51164   0.51293   0.51477   0.51820   0.52298
 Alpha virt. eigenvalues --    0.52973   0.53090   0.53689   0.54212   0.54647
 Alpha virt. eigenvalues --    0.55010   0.55230   0.56095   0.56818   0.57605
 Alpha virt. eigenvalues --    0.57782   0.57989   0.58506   0.58832   0.59326
 Alpha virt. eigenvalues --    0.59460   0.60236   0.60734   0.60986   0.61955
 Alpha virt. eigenvalues --    0.62380   0.62424   0.63127   0.63856   0.64337
 Alpha virt. eigenvalues --    0.64603   0.65524   0.65859   0.66825   0.67118
 Alpha virt. eigenvalues --    0.67687   0.68223   0.68884   0.69955   0.70032
 Alpha virt. eigenvalues --    0.71422   0.71646   0.72609   0.73092   0.73733
 Alpha virt. eigenvalues --    0.74989   0.75321   0.76016   0.76622   0.76672
 Alpha virt. eigenvalues --    0.77736   0.78231   0.78431   0.79222   0.80177
 Alpha virt. eigenvalues --    0.81258   0.81647   0.81849   0.82769   0.83102
 Alpha virt. eigenvalues --    0.83673   0.84485   0.84857   0.85771   0.86071
 Alpha virt. eigenvalues --    0.87329   0.88407   0.89003   0.89860   0.90455
 Alpha virt. eigenvalues --    0.91030   0.91608   0.91926   0.92419   0.93867
 Alpha virt. eigenvalues --    0.94305   0.94733   0.95118   0.95873   0.96853
 Alpha virt. eigenvalues --    0.97059   0.97667   0.98252   0.98616   0.99504
 Alpha virt. eigenvalues --    0.99770   1.01146   1.02499   1.02845   1.03154
 Alpha virt. eigenvalues --    1.04843   1.05095   1.05852   1.06049   1.06303
 Alpha virt. eigenvalues --    1.06846   1.08178   1.08777   1.08912   1.09767
 Alpha virt. eigenvalues --    1.10524   1.11090   1.11795   1.12229   1.12692
 Alpha virt. eigenvalues --    1.13353   1.13911   1.14401   1.14971   1.15624
 Alpha virt. eigenvalues --    1.16092   1.16883   1.17227   1.18418   1.19409
 Alpha virt. eigenvalues --    1.20432   1.21333   1.21937   1.22964   1.23495
 Alpha virt. eigenvalues --    1.25156   1.25539   1.26435   1.27114   1.27470
 Alpha virt. eigenvalues --    1.28562   1.29368   1.30459   1.31916   1.32593
 Alpha virt. eigenvalues --    1.33115   1.33358   1.33663   1.35012   1.35502
 Alpha virt. eigenvalues --    1.35965   1.37108   1.38396   1.38451   1.39543
 Alpha virt. eigenvalues --    1.40702   1.41267   1.41944   1.43444   1.44308
 Alpha virt. eigenvalues --    1.45445   1.46802   1.47085   1.47666   1.48798
 Alpha virt. eigenvalues --    1.50596   1.51062   1.51692   1.52192   1.53300
 Alpha virt. eigenvalues --    1.53614   1.53978   1.54289   1.55360   1.55997
 Alpha virt. eigenvalues --    1.56501   1.56696   1.56874   1.57356   1.58071
 Alpha virt. eigenvalues --    1.58257   1.58635   1.58966   1.59555   1.60019
 Alpha virt. eigenvalues --    1.60518   1.60983   1.61399   1.61932   1.62374
 Alpha virt. eigenvalues --    1.62599   1.63931   1.64074   1.64642   1.65005
 Alpha virt. eigenvalues --    1.65474   1.66171   1.66825   1.67529   1.68056
 Alpha virt. eigenvalues --    1.68756   1.69015   1.69067   1.69773   1.70430
 Alpha virt. eigenvalues --    1.70926   1.72202   1.72802   1.73462   1.73891
 Alpha virt. eigenvalues --    1.74462   1.75287   1.75671   1.76221   1.77013
 Alpha virt. eigenvalues --    1.77764   1.78412   1.79188   1.79869   1.80627
 Alpha virt. eigenvalues --    1.81279   1.81597   1.81911   1.82526   1.83812
 Alpha virt. eigenvalues --    1.83991   1.84729   1.84924   1.85730   1.86664
 Alpha virt. eigenvalues --    1.87118   1.87782   1.88698   1.89983   1.90294
 Alpha virt. eigenvalues --    1.91141   1.91489   1.92827   1.93678   1.93890
 Alpha virt. eigenvalues --    1.95016   1.95342   1.95726   1.96485   1.97025
 Alpha virt. eigenvalues --    1.97668   1.98766   1.99246   2.00029   2.00189
 Alpha virt. eigenvalues --    2.00924   2.02238   2.02552   2.03048   2.03545
 Alpha virt. eigenvalues --    2.04314   2.05525   2.06013   2.07400   2.07809
 Alpha virt. eigenvalues --    2.09082   2.10048   2.10111   2.10900   2.11493
 Alpha virt. eigenvalues --    2.12471   2.13251   2.14203   2.15324   2.15861
 Alpha virt. eigenvalues --    2.16242   2.17530   2.18030   2.18497   2.19690
 Alpha virt. eigenvalues --    2.20340   2.21226   2.21931   2.22417   2.22903
 Alpha virt. eigenvalues --    2.23516   2.23877   2.23948   2.26537   2.27083
 Alpha virt. eigenvalues --    2.27366   2.27809   2.28272   2.29009   2.29442
 Alpha virt. eigenvalues --    2.29967   2.31071   2.31790   2.32000   2.32372
 Alpha virt. eigenvalues --    2.32756   2.33525   2.33975   2.34688   2.35344
 Alpha virt. eigenvalues --    2.35634   2.36173   2.37647   2.38066   2.38954
 Alpha virt. eigenvalues --    2.39538   2.40092   2.40789   2.42293   2.43083
 Alpha virt. eigenvalues --    2.43496   2.43803   2.44172   2.44871   2.46405
 Alpha virt. eigenvalues --    2.46887   2.47891   2.48479   2.49200   2.49962
 Alpha virt. eigenvalues --    2.50825   2.51801   2.52395   2.52884   2.53668
 Alpha virt. eigenvalues --    2.54909   2.55694   2.56369   2.57166   2.57509
 Alpha virt. eigenvalues --    2.57978   2.58228   2.59143   2.59464   2.60119
 Alpha virt. eigenvalues --    2.60681   2.61377   2.61951   2.62920   2.63386
 Alpha virt. eigenvalues --    2.63986   2.64893   2.65323   2.65661   2.65811
 Alpha virt. eigenvalues --    2.66816   2.67362   2.67801   2.68771   2.70065
 Alpha virt. eigenvalues --    2.70187   2.70679   2.71290   2.72333   2.72963
 Alpha virt. eigenvalues --    2.73312   2.74198   2.75145   2.75867   2.76574
 Alpha virt. eigenvalues --    2.77268   2.78152   2.79033   2.79772   2.81221
 Alpha virt. eigenvalues --    2.81560   2.82953   2.83290   2.84303   2.84992
 Alpha virt. eigenvalues --    2.85515   2.86429   2.86900   2.87616   2.88726
 Alpha virt. eigenvalues --    2.88969   2.90370   2.91307   2.91894   2.92581
 Alpha virt. eigenvalues --    2.93240   2.94753   2.95599   2.96168   2.96490
 Alpha virt. eigenvalues --    2.97647   2.98929   2.99569   2.99791   3.00212
 Alpha virt. eigenvalues --    3.00615   3.01239   3.02110   3.03251   3.03878
 Alpha virt. eigenvalues --    3.04218   3.04938   3.05168   3.05498   3.05977
 Alpha virt. eigenvalues --    3.07049   3.07610   3.09040   3.09388   3.09576
 Alpha virt. eigenvalues --    3.09822   3.10472   3.11184   3.11717   3.12837
 Alpha virt. eigenvalues --    3.12904   3.14143   3.14398   3.14777   3.15743
 Alpha virt. eigenvalues --    3.15985   3.16693   3.17569   3.17944   3.18300
 Alpha virt. eigenvalues --    3.19104   3.19576   3.20290   3.20874   3.21166
 Alpha virt. eigenvalues --    3.21680   3.22474   3.22775   3.23601   3.24325
 Alpha virt. eigenvalues --    3.25494   3.26129   3.26648   3.27055   3.27770
 Alpha virt. eigenvalues --    3.28190   3.28660   3.29046   3.29590   3.30107
 Alpha virt. eigenvalues --    3.31088   3.32381   3.32710   3.33131   3.34052
 Alpha virt. eigenvalues --    3.34310   3.34882   3.35483   3.36473   3.36708
 Alpha virt. eigenvalues --    3.37167   3.37599   3.38011   3.38280   3.39213
 Alpha virt. eigenvalues --    3.39793   3.40121   3.40713   3.41719   3.42747
 Alpha virt. eigenvalues --    3.43264   3.43485   3.44216   3.44960   3.45250
 Alpha virt. eigenvalues --    3.46121   3.46696   3.47647   3.48158   3.49015
 Alpha virt. eigenvalues --    3.49110   3.49302   3.51333   3.51777   3.52658
 Alpha virt. eigenvalues --    3.53039   3.53475   3.53937   3.54778   3.56322
 Alpha virt. eigenvalues --    3.57125   3.57640   3.57955   3.58476   3.59134
 Alpha virt. eigenvalues --    3.60610   3.61856   3.62419   3.64064   3.64648
 Alpha virt. eigenvalues --    3.64785   3.66040   3.66424   3.66719   3.68462
 Alpha virt. eigenvalues --    3.68917   3.70986   3.71829   3.72700   3.73080
 Alpha virt. eigenvalues --    3.74316   3.74798   3.75975   3.76109   3.76846
 Alpha virt. eigenvalues --    3.77841   3.78598   3.78867   3.79467   3.80063
 Alpha virt. eigenvalues --    3.82185   3.84199   3.85339   3.86561   3.87398
 Alpha virt. eigenvalues --    3.89428   3.90906   3.91661   3.92122   3.92860
 Alpha virt. eigenvalues --    3.93280   3.93838   3.95881   3.96680   3.98512
 Alpha virt. eigenvalues --    4.00219   4.00979   4.02863   4.03545   4.05999
 Alpha virt. eigenvalues --    4.07616   4.08942   4.09651   4.10640   4.11299
 Alpha virt. eigenvalues --    4.12259   4.12960   4.14193   4.14730   4.16385
 Alpha virt. eigenvalues --    4.18389   4.19055   4.20289   4.21258   4.21628
 Alpha virt. eigenvalues --    4.24105   4.25725   4.27184   4.27793   4.28671
 Alpha virt. eigenvalues --    4.31686   4.32829   4.33429   4.35451   4.38269
 Alpha virt. eigenvalues --    4.39263   4.40058   4.41648   4.41720   4.42752
 Alpha virt. eigenvalues --    4.42850   4.44666   4.46475   4.47625   4.49360
 Alpha virt. eigenvalues --    4.49653   4.51973   4.53134   4.55663   4.56569
 Alpha virt. eigenvalues --    4.59741   4.60771   4.64712   4.65995   4.66679
 Alpha virt. eigenvalues --    4.68546   4.70794   4.71602   4.71938   4.74144
 Alpha virt. eigenvalues --    4.75602   4.75609   4.78130   4.79240   4.80255
 Alpha virt. eigenvalues --    4.83426   4.86547   4.88876   4.90353   4.91976
 Alpha virt. eigenvalues --    4.93487   4.94827   4.96091   4.98262   4.99091
 Alpha virt. eigenvalues --    4.99709   5.01075   5.01840   5.05623   5.06269
 Alpha virt. eigenvalues --    5.10505   5.14255   5.15273   5.17425   5.21301
 Alpha virt. eigenvalues --    5.21996   5.22883   5.23534   5.26007   5.27963
 Alpha virt. eigenvalues --    5.29475   5.30976   5.31287   5.35402   5.35986
 Alpha virt. eigenvalues --    5.37637   5.41454   5.43353   5.44293   5.46782
 Alpha virt. eigenvalues --    5.47461   5.49639   5.53767   5.57497   5.57872
 Alpha virt. eigenvalues --    5.62887   5.66316   5.74870   5.75928   5.77424
 Alpha virt. eigenvalues --    5.79582   5.80194   5.83739   5.84133   5.86292
 Alpha virt. eigenvalues --    5.87817   5.89591   5.90676   5.92578   5.94830
 Alpha virt. eigenvalues --    5.98556   6.02393   6.08120   6.16484   6.20457
 Alpha virt. eigenvalues --    6.22683   6.25243   6.29548   6.30990   6.34373
 Alpha virt. eigenvalues --    6.38777   6.44176   6.45103   6.47583   6.52465
 Alpha virt. eigenvalues --    6.54632   6.59499   6.69532   6.74014   6.74800
 Alpha virt. eigenvalues --    6.78820   6.81292   6.82672   6.85707   6.86582
 Alpha virt. eigenvalues --    6.87354   6.93168   6.98832   7.00129   7.06834
 Alpha virt. eigenvalues --    7.08449   7.09136   7.11426   7.15860   7.24204
 Alpha virt. eigenvalues --    7.25851   7.34152   8.98667   9.37914   9.51317
 Alpha virt. eigenvalues --   19.85646  22.27800  22.42304  22.47352  22.48446
 Alpha virt. eigenvalues --   22.56406  22.64568  22.66552  22.72284  22.79468
 Alpha virt. eigenvalues --   22.85891  22.93791  22.99539  23.02152  23.05348
 Alpha virt. eigenvalues --   23.19992  23.48288  32.17262  33.17774  44.12805
 Alpha virt. eigenvalues --   44.17766  44.23225  44.27145  44.57510
          Condensed to atoms (all electrons):
               1          2          3          4          5          6
     1  C    5.119242   0.421136   0.412620  -0.016761  -0.000196  -0.000088
     2  H    0.421136   0.509500  -0.022391  -0.001462   0.000447  -0.000005
     3  H    0.412620  -0.022391   0.541755   0.001229  -0.000031  -0.000007
     4  C   -0.016761  -0.001462   0.001229   5.623888   0.473971   0.247251
     5  H   -0.000196   0.000447  -0.000031   0.473971   0.549972  -0.030191
     6  O   -0.000088  -0.000005  -0.000007   0.247251  -0.030191   8.013275
     7  H    0.000008  -0.000009   0.000004  -0.064453  -0.002599   0.295119
     8  C    0.006298   0.013352  -0.009015  -0.168807  -0.087268  -0.056807
     9  H    0.010192  -0.000000  -0.001987  -0.131456   0.003535   0.002166
    10  O    0.007754  -0.000365   0.000265  -0.043284   0.002186   0.000829
    11  H   -0.000625  -0.000190   0.000453   0.011553  -0.000906  -0.000578
    12  C   -0.001419  -0.000074   0.001146  -0.040674  -0.052272  -0.002761
    13  H   -0.000393   0.000049   0.000120  -0.112340   0.005933  -0.000229
    14  C    0.187446  -0.048484  -0.040690   0.156705   0.019210   0.009562
    15  H   -0.076563  -0.006675  -0.002895  -0.013904  -0.000216   0.000021
    16  O   -0.037266   0.000885   0.005449  -0.087118  -0.003207   0.005713
    17  N    0.000470  -0.000107  -0.000046   0.037758  -0.015521  -0.006864
    18  C   -0.001193   0.000006   0.000008  -0.003317  -0.003061   0.003046
    19  H   -0.000061  -0.000079   0.000054  -0.016655  -0.003275   0.001239
    20  C   -0.000041   0.000006  -0.000002   0.005265   0.005567  -0.002269
    21  H    0.000006   0.000001  -0.000000   0.000039   0.000141  -0.000031
    22  C   -0.000009  -0.000001   0.000000   0.000113  -0.000291   0.000200
    23  H   -0.000000   0.000000   0.000000   0.000025   0.000007   0.000000
    24  H    0.000000  -0.000000  -0.000000  -0.000134  -0.000032  -0.000007
    25  C   -0.000072  -0.000007   0.000001  -0.001907  -0.000670  -0.000403
    26  C   -0.000254   0.000030  -0.000005   0.023383  -0.000433  -0.003247
    27  H   -0.000017   0.000001  -0.000000   0.000859  -0.000077   0.000101
    28  C    0.000000  -0.000000  -0.000000   0.000151  -0.000003  -0.000021
    29  O   -0.000000   0.000000  -0.000000   0.000002   0.000000  -0.000000
    30  N   -0.000000   0.000000   0.000000   0.000001  -0.000000  -0.000000
    31  H   -0.000000   0.000000   0.000000   0.000000   0.000000  -0.000000
    32  H   -0.000000   0.000000  -0.000000   0.000001   0.000000  -0.000000
    33  C    0.000000  -0.000000   0.000000  -0.000214  -0.000344  -0.012613
    34  C    0.000000  -0.000000  -0.000000   0.000210   0.000000  -0.000805
    35  C    0.000000   0.000000  -0.000000  -0.000363   0.000041  -0.000090
    36  C   -0.000000   0.000000  -0.000000  -0.000000   0.000000   0.000000
    37  C   -0.000000   0.000000   0.000000   0.000204  -0.000000   0.000051
    38  O    0.000000   0.000000  -0.000000  -0.000545  -0.000061  -0.016861
    39  S   -0.000000  -0.000000   0.000000   0.000720   0.000018   0.000945
    40  H   -0.000000   0.000000  -0.000000   0.000198   0.000020   0.000210
    41  H   -0.000001   0.000000  -0.000000  -0.004389   0.000528   0.014654
    42  H    0.000000   0.000000  -0.000000  -0.000000  -0.000000  -0.000000
    43  H    0.000000  -0.000000  -0.000000  -0.000000  -0.000000  -0.000000
    44  H   -0.000000  -0.000000  -0.000000   0.000000  -0.000000   0.000000
    45  H   -0.000000  -0.000000   0.000000   0.000017   0.000003   0.000010
    46  H   -0.000000  -0.000000   0.000000  -0.000007   0.000000   0.000005
    47  H    0.379491  -0.022315  -0.025104   0.003283  -0.001271   0.000047
    48  H    0.000000   0.000000  -0.000000   0.000059   0.000002   0.000431
               7          8          9         10         11         12
     1  C    0.000008   0.006298   0.010192   0.007754  -0.000625  -0.001419
     2  H   -0.000009   0.013352  -0.000000  -0.000365  -0.000190  -0.000074
     3  H    0.000004  -0.009015  -0.001987   0.000265   0.000453   0.001146
     4  C   -0.064453  -0.168807  -0.131456  -0.043284   0.011553  -0.040674
     5  H   -0.002599  -0.087268   0.003535   0.002186  -0.000906  -0.052272
     6  O    0.295119  -0.056807   0.002166   0.000829  -0.000578  -0.002761
     7  H    0.434560   0.002818  -0.000954  -0.001309   0.000291  -0.000910
     8  C    0.002818   5.593852   0.529250   0.257307  -0.039387   0.025010
     9  H   -0.000954   0.529250   0.573508  -0.056844  -0.001758   0.017249
    10  O   -0.001309   0.257307  -0.056844   8.039026   0.289031  -0.011805
    11  H    0.000291  -0.039387  -0.001758   0.289031   0.428354  -0.001430
    12  C   -0.000910   0.025010   0.017249  -0.011805  -0.001430   5.561845
    13  H   -0.003417   0.019630   0.002780   0.015488  -0.001493   0.483780
    14  C   -0.000150   0.041871  -0.109256  -0.046671  -0.006117  -0.112895
    15  H    0.000126  -0.035067   0.011504  -0.007620   0.005960   0.000164
    16  O    0.001586  -0.041945   0.004772   0.007413   0.000387   0.281496
    17  N    0.017593   0.002756  -0.001095  -0.000523   0.000045   0.113242
    18  C   -0.000287  -0.005048  -0.000450  -0.000459   0.000020  -0.089852
    19  H    0.000508   0.001394   0.000058  -0.000007   0.000005   0.021674
    20  C   -0.001026  -0.002026   0.000015   0.000011  -0.000001   0.014305
    21  H   -0.000007  -0.000008   0.000000   0.000000  -0.000000   0.000370
    22  C    0.000385   0.000043  -0.000003  -0.000003   0.000000  -0.009102
    23  H   -0.000014  -0.000000   0.000000   0.000000  -0.000000   0.000153
    24  H    0.000267   0.000005  -0.000000   0.000000   0.000000   0.000202
    25  C   -0.001609  -0.000063  -0.000003  -0.000053   0.000001  -0.023888
    26  C   -0.003130  -0.003642  -0.000139  -0.000736  -0.000042  -0.074402
    27  H    0.000109  -0.000029  -0.000009  -0.000138   0.000007  -0.002428
    28  C    0.000086   0.000006   0.000000  -0.000000  -0.000000  -0.001678
    29  O    0.000025   0.000001   0.000000  -0.000000  -0.000000   0.000413
    30  N   -0.000000  -0.000000  -0.000000  -0.000000  -0.000000  -0.000001
    31  H   -0.000000  -0.000000   0.000000  -0.000000  -0.000000  -0.000004
    32  H   -0.000000  -0.000000  -0.000000  -0.000000  -0.000000  -0.000005
    33  C    0.004730   0.000853   0.000001  -0.000561   0.000044  -0.000878
    34  C   -0.001993  -0.000057  -0.000001   0.000020  -0.000001  -0.001582
    35  C    0.002749  -0.000052  -0.000000   0.000001  -0.000000   0.001219
    36  C   -0.000005  -0.000000  -0.000000  -0.000000  -0.000000   0.000023
    37  C   -0.001063   0.000002  -0.000000  -0.000000   0.000000  -0.000482
    38  O    0.026725   0.000036   0.000004   0.000005  -0.000000  -0.001126
    39  S   -0.003243  -0.000009  -0.000000  -0.000002  -0.000000  -0.000596
    40  H   -0.001609  -0.000011   0.000000   0.000009  -0.000001   0.000009
    41  H    0.000604  -0.002032   0.000037   0.001913  -0.000146   0.002054
    42  H    0.000001   0.000000  -0.000000   0.000000   0.000000   0.000002
    43  H    0.000001   0.000000  -0.000000   0.000000   0.000000  -0.000000
    44  H   -0.000000  -0.000000  -0.000000   0.000000   0.000000  -0.000000
    45  H   -0.000088  -0.000000   0.000000  -0.000000  -0.000000  -0.000032
    46  H   -0.000025  -0.000000  -0.000000  -0.000000   0.000000   0.000047
    47  H    0.000037  -0.016307   0.001656   0.000087   0.000139  -0.001077
    48  H   -0.000175  -0.000007   0.000001   0.000006  -0.000001  -0.000009
              13         14         15         16         17         18
     1  C   -0.000393   0.187446  -0.076563  -0.037266   0.000470  -0.001193
     2  H    0.000049  -0.048484  -0.006675   0.000885  -0.000107   0.000006
     3  H    0.000120  -0.040690  -0.002895   0.005449  -0.000046   0.000008
     4  C   -0.112340   0.156705  -0.013904  -0.087118   0.037758  -0.003317
     5  H    0.005933   0.019210  -0.000216  -0.003207  -0.015521  -0.003061
     6  O   -0.000229   0.009562   0.000021   0.005713  -0.006864   0.003046
     7  H   -0.003417  -0.000150   0.000126   0.001586   0.017593  -0.000287
     8  C    0.019630   0.041871  -0.035067  -0.041945   0.002756  -0.005048
     9  H    0.002780  -0.109256   0.011504   0.004772  -0.001095  -0.000450
    10  O    0.015488  -0.046671  -0.007620   0.007413  -0.000523  -0.000459
    11  H   -0.001493  -0.006117   0.005960   0.000387   0.000045   0.000020
    12  C    0.483780  -0.112895   0.000164   0.281496   0.113242  -0.089852
    13  H    0.519806  -0.008529   0.006003  -0.038269  -0.073787   0.012962
    14  C   -0.008529   5.314917   0.409381   0.214241   0.010843  -0.000348
    15  H    0.006003   0.409381   0.638077  -0.036759  -0.001776   0.000184
    16  O   -0.038269   0.214241  -0.036759   8.065914  -0.072842   0.009564
    17  N   -0.073787   0.010843  -0.001776  -0.072842   6.624063   0.297885
    18  C    0.012962  -0.000348   0.000184   0.009564   0.297885   5.062194
    19  H    0.000999  -0.003703   0.000160   0.008301  -0.049547   0.409369
    20  C   -0.000858   0.001223  -0.000005  -0.000497  -0.072981   0.483048
    21  H    0.000009   0.000004  -0.000000  -0.000058   0.004616  -0.032364
    22  C    0.000157  -0.000101   0.000002   0.000400  -0.009877   0.004996
    23  H    0.000002   0.000000   0.000000  -0.000009  -0.000751   0.003913
[...]
      4        6          -0.007894500   -0.002609890    0.002555682
      5        1           0.003798988    0.003950014    0.001399529
      6        8           0.007354210    0.001348587   -0.005767973
      7        1          -0.004665554   -0.005206921    0.004176976
      8        6          -0.003504237   -0.011214200   -0.001258336
      9        1          -0.001208063    0.005470173   -0.004046929
     10        8           0.025822359    0.001642612   -0.005105835
     11        1          -0.024120594    0.004601891    0.007344168
     12        6           0.003195665    0.005499893    0.006789041
     13        1          -0.001542434   -0.002521134   -0.002766010
     14        6           0.008729397   -0.001804099    0.001834953
     15        1          -0.003206766    0.003091828    0.001248317
     16        8           0.002363869   -0.002897167   -0.007231973
     17        7          -0.000196719    0.005311895   -0.006331284
     18        6          -0.007765035   -0.001982704   -0.002954596
     19        1          -0.001667154    0.006987938   -0.000812636
     20        6           0.004038117   -0.003642112    0.002345079
     21        1           0.003644357    0.005124547    0.000702901
     22        6          -0.018014406    0.010229680    0.015964181
     23        1           0.002176895    0.000211911    0.005358602
     24        1           0.018104497   -0.020652607   -0.024149447
     25        6           0.002407941    0.001278384   -0.001626105
     26        6          -0.001789471   -0.004030374   -0.000656842
     27        1          -0.006235703   -0.004360808    0.002128477
     28        6           0.018853287   -0.002060258    0.016925456
     29        8          -0.007003472   -0.004920394   -0.006052564
     30        7          -0.008389561    0.001529508   -0.021270370
     31        1          -0.002029123   -0.005760286    0.003842835
     32        1           0.005367868    0.009611614    0.009880547
     33        6          -0.006170624   -0.013043776   -0.003148302
     34        6           0.000292100   -0.012758109    0.005630659
     35        6          -0.004908893    0.002677831   -0.006624669
     36        6          -0.001784367    0.000913393   -0.004473830
     37        6           0.004223908    0.009760824    0.014622120
     38        8           0.001240643    0.009792964   -0.004362986
     39       16           0.005431142    0.003607319    0.002241332
     40        1           0.005524020    0.002639444   -0.003242204
     41        1          -0.002240475    0.005650134    0.004739693
     42        1          -0.000677116    0.000420686    0.003181985
     43        1          -0.002973658   -0.003991704    0.003130133
     44        1           0.006130298   -0.002264865   -0.002855564
     45        1           0.002003778    0.006176261   -0.001978015
     46        1          -0.004131858   -0.006956495    0.002734280
     47        1           0.001334517   -0.004609843   -0.001025969
     48        1          -0.002021716    0.003311851   -0.004519778
 -------------------------------------------------------------------
 Cartesian Forces:  Max     0.025822359 RMS     0.007268821
 Leave Link  716 at Sun Feb 19 04:14:06 2023, MaxMem=  2684354560 cpu:               0.4 elap:               0.0
 (Enter /storage/apps/GAUSSIAN/G16_RevA03/g16/l103.exe)

 GradGradGradGradGradGradGradGradGradGradGradGradGradGradGradGradGradGrad
 Berny optimization.
 Search for a local minimum.
 Step number   1 out of a maximum of    2
 All quantities printed in internal units (Hartrees-Bohrs-Radians)
 Second derivative matrix not updated -- first step.
 ITU=  0
     Eigenvalues ---    0.00051   0.00070   0.00110   0.00141   0.00181
     Eigenvalues ---    0.00255   0.00323   0.00379   0.00451   0.00505
     Eigenvalues ---    0.00586   0.00792   0.00838   0.00893   0.00986
     Eigenvalues ---    0.01059   0.01169   0.01349   0.01407   0.01697
     Eigenvalues ---    0.01722   0.01934   0.01952   0.02534   0.02782
     Eigenvalues ---    0.03050   0.03186   0.03234   0.03504   0.03946
     Eigenvalues ---    0.04240   0.04557   0.04929   0.04962   0.05105
     Eigenvalues ---    0.05295   0.05390   0.05594   0.05770   0.05870
     Eigenvalues ---    0.06081   0.06170   0.06354   0.06544   0.06878
     Eigenvalues ---    0.07041   0.07379   0.07511   0.07868   0.08308
     Eigenvalues ---    0.08730   0.09053   0.09689   0.10033   0.10174
     Eigenvalues ---    0.10571   0.11412   0.12216   0.12313   0.12489
     Eigenvalues ---    0.12762   0.12809   0.12904   0.13464   0.13764
     Eigenvalues ---    0.13840   0.14280   0.15297   0.15799   0.16676
     Eigenvalues ---    0.17137   0.17535   0.18673   0.18996   0.19430
     Eigenvalues ---    0.19731   0.21171   0.21309   0.21879   0.24386
     Eigenvalues ---    0.26841   0.27038   0.27451   0.30716   0.32408
     Eigenvalues ---    0.32811   0.33972   0.34666   0.36852   0.37240
     Eigenvalues ---    0.37240   0.37240   0.37240   0.37240   0.39484
     Eigenvalues ---    0.42360   0.43316   0.47628   0.53993   0.55156
     Eigenvalues ---    0.60295   0.64730   0.67575   0.68833   0.72321
     Eigenvalues ---    0.77029   0.81236   0.81359   0.87278   0.87612
     Eigenvalues ---    0.89155   0.90372   0.91744   0.91974   0.92254
     Eigenvalues ---    0.92768   0.95386   0.97067   0.98287   1.00038
     Eigenvalues ---    1.01860   1.05871   1.08092   1.10411   1.11924
     Eigenvalues ---    1.17086   1.17337   1.20317   1.26382   1.29748
     Eigenvalues ---    1.36476   1.41408   1.48237   1.57648   1.63501
     Eigenvalues ---    1.74926   2.14822   2.21669
 Quadratic step=3.335D+00 exceeds max=3.000D-01 adjusted using Lamda=-3.575D-02.
 Angle between NR and scaled steps=  61.37 degrees.
 Angle between quadratic step and forces=  55.65 degrees.
 Linear search not attempted -- first point.
 Variable       Old X    -DE/DX   Delta X   Delta X   Delta X     New X
                                 (Linear)    (Quad)   (Total)
    X1        6.47146  -0.00087   0.00000  -0.02564  -0.02564   6.44583
    Y1       -7.19220   0.00878   0.00000   0.01624   0.01624  -7.17596
    Z1       -1.33684  -0.00002   0.00000   0.00772   0.00772  -1.32912
    X2        6.61404  -0.00048   0.00000  -0.02317  -0.02317   6.59087
    Y2       -7.45992  -0.00080   0.00000   0.00120   0.00120  -7.45871
    Z2       -3.39070   0.00668   0.00000   0.02541   0.02541  -3.36528
    X3        8.17255  -0.00655   0.00000  -0.04831  -0.04831   8.12424
    Y3       -7.94229  -0.00154   0.00000  -0.02572  -0.02572  -7.96801
    Z3       -0.40902  -0.00318   0.00000  -0.01839  -0.01839  -0.42742
    X4        2.99912  -0.00789   0.00000   0.00183   0.00183   3.00095
    Y4       -2.86950  -0.00261   0.00000   0.00876   0.00876  -2.86074
    Z4        1.89219   0.00256   0.00000   0.00009   0.00009   1.89228
    X5        1.83446   0.00380   0.00000   0.01749   0.01749   1.85195
    Y5       -4.59068   0.00395   0.00000   0.01386   0.01386  -4.57682
    Z5        1.65558   0.00140   0.00000   0.02796   0.02796   1.68354
    X6        2.08979   0.00735   0.00000   0.05611   0.05611   2.14590
    Y6       -1.41813   0.00135   0.00000   0.01957   0.01957  -1.39857
    Z6        3.90106  -0.00577   0.00000   0.00361   0.00361   3.90468
    X7        0.98030  -0.00467   0.00000  -0.06812  -0.06812   0.91217
    Y7       -0.11672  -0.00521   0.00000  -0.06202  -0.06202  -0.17874
    Z7        3.22570   0.00418   0.00000   0.05913   0.05913   3.28483
    X8        5.75363  -0.00350   0.00000  -0.00089  -0.00089   5.75273
    Y8       -3.72548  -0.01121   0.00000   0.00489   0.00489  -3.72059
    Z8        2.07015  -0.00126   0.00000  -0.01207  -0.01207   2.05808
    X9        5.98522  -0.00121   0.00000  -0.00017  -0.00017   5.98505
    Y9       -5.40192   0.00547   0.00000   0.02129   0.02129  -5.38063
    Z9        3.29568  -0.00405   0.00000  -0.02166  -0.02166   3.27403
   X10        7.23286   0.02582   0.00000   0.00373   0.00373   7.23659
   Y10       -1.71233   0.00164   0.00000   0.01760   0.01760  -1.69473
   Z10        2.94013  -0.00511   0.00000  -0.00962  -0.00962   2.93050
   X11        9.01476  -0.02412   0.00000  -0.03821  -0.03821   8.97655
   Y11       -2.04463   0.00460   0.00000   0.01836   0.01836  -2.02627
   Z11        2.48510   0.00734   0.00000   0.01668   0.01668   2.50177
   X12        3.04262   0.00320   0.00000   0.00240   0.00240   3.04501
   Y12       -1.50055   0.00550   0.00000   0.00201   0.00201  -1.49854
   Z12       -0.64764   0.00679   0.00000  -0.00572  -0.00572  -0.65336
   X13        4.09752  -0.00154   0.00000   0.00202   0.00202   4.09954
   Y13        0.27660  -0.00252   0.00000  -0.00253  -0.00253   0.27407
   Z13       -0.38597  -0.00277   0.00000  -0.03660  -0.03660  -0.42257
   X14        6.30004   0.00873   0.00000   0.01177   0.01177   6.31181
   Y14       -4.38151  -0.00180   0.00000   0.00964   0.00964  -4.37187
   Z14       -0.74736   0.00183   0.00000  -0.00088  -0.00088  -0.74824
   X15        8.12928  -0.00321   0.00000  -0.00685  -0.00685   8.12244
   Y15       -3.53666   0.00309   0.00000   0.03642   0.03642  -3.50024
   Z15       -1.26960   0.00125   0.00000  -0.00029  -0.00029  -1.26989
   X16        4.35712   0.00236   0.00000   0.00787   0.00787   4.36499
   Y16       -3.21522  -0.00290   0.00000  -0.00428  -0.00428  -3.21950
   Z16       -2.20008  -0.00723   0.00000  -0.01340  -0.01340  -2.21349
   X17        0.62471  -0.00020   0.00000  -0.00237  -0.00237   0.62234
   Y17       -0.86954   0.00531   0.00000  -0.00298  -0.00298  -0.87251
   Z17       -1.65797  -0.00633   0.00000  -0.01396  -0.01396  -1.67192
   X18       -1.17007  -0.00777   0.00000  -0.01313  -0.01313  -1.18320
   Y18       -2.77457  -0.00198   0.00000   0.00751   0.00751  -2.76706
   Z18       -2.03111  -0.00295   0.00000   0.00165   0.00165  -2.02947
   X19       -0.57671  -0.00167   0.00000  -0.01477  -0.01477  -0.59148
   Y19       -4.67619   0.00699   0.00000   0.03140   0.03140  -4.64479
   Z19       -1.50904  -0.00081   0.00000   0.01729   0.01729  -1.49175
   X20       -3.42769   0.00404   0.00000   0.00109   0.00109  -3.42660
   Y20       -2.32031  -0.00364   0.00000   0.00018   0.00018  -2.32013
   Z20       -3.06807   0.00235   0.00000   0.00521   0.00521  -3.06286
   X21       -4.71458   0.00364   0.00000   0.00476   0.00476  -4.70982
   Y21       -3.90468   0.00512   0.00000   0.01819   0.01819  -3.88649
   Z21       -3.34633   0.00070   0.00000   0.01847   0.01847  -3.32787
   X22       -4.21390  -0.01801   0.00000   0.00110   0.00110  -4.21280
   Y22        0.28717   0.01023   0.00000  -0.01461  -0.01461   0.27255
   Z22       -3.89074   0.01596   0.00000  -0.00302  -0.00302  -3.89375
   X23       -5.23994   0.00218   0.00000   0.00962   0.00962  -5.23033
   Y23        0.16829   0.00021   0.00000  -0.01058  -0.01058   0.15771
   Z23       -5.69987   0.00536   0.00000   0.01190   0.01190  -5.68797
   X24       -5.60707   0.01810   0.00000   0.02873   0.02873  -5.57834
   Y24        1.22162  -0.02065   0.00000  -0.11204  -0.11204   1.10959
   Z24       -2.47751  -0.02415   0.00000  -0.08476  -0.08476  -2.56226
   X25       -1.93936   0.00241   0.00000  -0.00122  -0.00122  -1.94058
   Y25        1.99172   0.00128   0.00000  -0.00926  -0.00926   1.98246
   Z25       -4.05501  -0.00163   0.00000   0.00337   0.00337  -4.05164
   X26        0.25211  -0.00179   0.00000  -0.01314  -0.01314   0.23897
   Y26        1.41410  -0.00403   0.00000  -0.01788  -0.01788   1.39622
   Z26       -2.90491  -0.00066   0.00000  -0.00208  -0.00208  -2.90699
   X27        1.85386  -0.00624   0.00000  -0.03239  -0.03239   1.82147
   Y27        2.71852  -0.00436   0.00000  -0.01971  -0.01971   2.69881
   Z27       -2.96056   0.00213   0.00000   0.02139   0.02139  -2.93917
   X28       -2.16505   0.01885   0.00000   0.02882   0.02882  -2.13623
   Y28        4.50420  -0.00206   0.00000  -0.01123  -0.01123   4.49297
   Z28       -5.30128   0.01693   0.00000   0.01559   0.01559  -5.28569
   X29       -0.81576  -0.00700   0.00000   0.01849   0.01849  -0.79727
   Y29        6.29231  -0.00492   0.00000  -0.00750  -0.00750   6.28481
   Z29       -4.71985  -0.00605   0.00000  -0.01361  -0.01361  -4.73346
   X30       -4.03543  -0.00839   0.00000   0.02353   0.02353  -4.01190
   Y30        4.74259   0.00153   0.00000   0.01308   0.01308   4.75567
   Z30       -7.04765  -0.02127   0.00000  -0.00528  -0.00528  -7.05294
   X31       -3.91032  -0.00203   0.00000  -0.00197  -0.00197  -3.91229
   Y31        6.36974  -0.00576   0.00000   0.00235   0.00235   6.37209
   Z31       -8.06520   0.00384   0.00000   0.00302   0.00302  -8.06218
   X32       -4.67512   0.00537   0.00000   0.01580   0.01580  -4.65932
   Y32        3.20857   0.00961   0.00000   0.02410   0.02410   3.23267
   Z32       -8.03455   0.00988   0.00000   0.04256   0.04256  -7.99200
   X33        0.97830  -0.00617   0.00000  -0.02647  -0.02647   0.95183
   Y33        4.04000  -0.01304   0.00000  -0.02985  -0.02985   4.01016
   Z33        7.05943  -0.00315   0.00000  -0.02064  -0.02064   7.03879
   X34       -2.08529   0.00029   0.00000  -0.00887  -0.00887  -2.09416
   Y34        4.23367  -0.01276   0.00000  -0.00746  -0.00746   4.22622
   Z34        2.83822   0.00563   0.00000   0.01012   0.01012   2.84834
   X35       -3.46854  -0.00491   0.00000  -0.01084  -0.01084  -3.47938
   Y35        5.61257   0.00268   0.00000   0.01602   0.01602   5.62859
   Z35        0.85320  -0.00662   0.00000   0.02374   0.02374   0.87694
   X36       -7.26050  -0.00178   0.00000   0.00725   0.00725  -7.25325
   Y36        6.27794   0.00091   0.00000  -0.00898  -0.00898   6.26896
   Z36       -1.83432  -0.00447   0.00000  -0.00847  -0.00847  -1.84279
   X37       -5.66846   0.00422   0.00000  -0.01885  -0.01885  -5.68731
   Y37        4.75760   0.00976   0.00000   0.05489   0.05489   4.81249
   Z37       -0.06245   0.01462   0.00000   0.06285   0.06285   0.00040
   X38       -2.20659   0.00124   0.00000   0.00362   0.00362  -2.20297
   Y38        1.96081   0.00979   0.00000  -0.00480  -0.00480   1.95601
   Z38        3.19828  -0.00436   0.00000  -0.03395  -0.03395   3.16433
   X39       -0.29839   0.00543   0.00000   0.00493   0.00493  -0.29346
   Y39        6.25887   0.00361   0.00000  -0.00769  -0.00769   6.25118
   Z39        4.79436   0.00224   0.00000   0.00049   0.00049   4.79484
   X40       -0.59316   0.00552   0.00000   0.00142   0.00142  -0.59174
   Y40        3.12917   0.00264   0.00000  -0.02281  -0.02281   3.10636
   Z40        8.06520  -0.00324   0.00000  -0.01503  -0.01503   8.05017
   X41        2.07023  -0.00224   0.00000   0.00802   0.00802   2.07825
   Y41        2.57729   0.00565   0.00000   0.00293   0.00293   2.58021
   Z41        6.07001   0.00474   0.00000   0.01264   0.01264   6.08265
   X42       -7.79650  -0.00068   0.00000   0.01788   0.01788  -7.77862
   Y42        5.17902   0.00042   0.00000  -0.03930  -0.03930   5.13972
   Z42       -3.50506   0.00318   0.00000   0.01652   0.01652  -3.48854
   X43       -6.22255  -0.00297   0.00000   0.00099   0.00099  -6.22157
   Y43        7.94229  -0.00399   0.00000  -0.02304  -0.02304   7.91925
   Z43       -2.51338   0.00313   0.00000  -0.00813  -0.00813  -2.52151
   X44       -9.01476   0.00613   0.00000   0.01791   0.01791  -8.99685
   Y44        6.89560  -0.00226   0.00000  -0.00556  -0.00556   6.89004
   Z44       -0.89127  -0.00286   0.00000  -0.03627  -0.03627  -0.92754
   X45       -6.41538   0.00200   0.00000  -0.00607  -0.00607  -6.42145
   Y45        2.98463   0.00618   0.00000   0.06150   0.06150   3.04613
   Z45        0.70098  -0.00198   0.00000   0.04556   0.04556   0.74654
   X46       -2.65881  -0.00413   0.00000  -0.00340  -0.00340  -2.66221
   Y46        7.41076  -0.00696   0.00000  -0.01764  -0.01764   7.39312
   Z46        0.21395   0.00273   0.00000   0.01115   0.01115   0.22510
   X47        4.77664   0.00133   0.00000  -0.01089  -0.01089   4.76574
   Y47       -8.12175  -0.00461   0.00000  -0.02266  -0.02266  -8.14441
   Z47       -0.62530  -0.00103   0.00000  -0.00817  -0.00817  -0.63346
   X48        2.18354  -0.00202   0.00000  -0.04138  -0.04138   2.14216
   Y48        5.01795   0.00331   0.00000   0.02666   0.02666   5.04461
   Z48        8.41360  -0.00452   0.00000  -0.05176  -0.05176   8.36183
         Item               Value     Threshold  Converged?
 Maximum Force            0.025822     0.000450     NO 
 RMS     Force            0.007269     0.000300     NO 
 Maximum Displacement     0.112037     0.001800     NO 
 RMS     Displacement     0.025031     0.001200     NO 
 Predicted change in Energy=-9.005386D-03
 GradGradGradGradGradGradGradGradGradGradGradGradGradGradGradGradGradGrad

 Leave Link  103 at Sun Feb 19 04:14:06 2023, MaxMem=  2684354560 cpu:               1.4 elap:               0.1
 (Enter /storage/apps/GAUSSIAN/G16_RevA03/g16/l9999.exe)

 Test job not archived.
 1\1\GINC-T027\Force\RM062X\def2TZVP\C16H24N2O5S1\LV87696\19-Feb-2023\0
 \\#P M062X/Def2TZVP scf=(direct,conver=8) EmpiricalDispersion=GD3 NoSy
 mm Force pop=(NBORead) Charge Prop=(Field,Read)\\Gaussian run using SA
 NDER external interface, route from template gau_job.tpl\\0,1\C,3.4245
 503522,-3.8059490154,-0.7074260758\H,3.4999989718,-3.9476173011,-1.794
 2786416\H,4.3247266597,-4.2028770823,-0.2164461803\C,1.5870682316,-1.5
 184751225,1.0013033243\H,0.9707564862,-2.4292815488,0.8760966019\O,1.1
 058704395,-0.7504436925,2.0643546645\H,0.5187517439,-0.0617662309,1.70
 69653873\C,3.0446878128,-1.971440752,1.0954750223\H,3.1672440943,-2.85
 85721413,1.744000749\O,3.827464052,-0.9061251454,1.5558476833\H,4.7704
 060167,-1.0819738662,1.3150571819\C,1.6100832563,-0.7940551128,-0.3427
 181202\H,2.1683159871,0.1463721735,-0.204246253\C,3.3338381812,-2.3185
 936714,-0.3954883827\H,4.3018318438,-1.8715223256,-0.6718407949\O,2.30
 56903845,-1.7014213445,-1.164233381\N,0.3305806612,-0.4601395604,-0.87
 73584063\C,-0.6191730469,-1.4682397574,-1.074819558\H,-0.3051837187,-2
 .4745331577,-0.7985515614\C,-1.8138550616,-1.2278577329,-1.6235534093\
 H,-2.4948478259,-2.0662668511,-1.770803652\C,-2.2298991234,0.151962262
 1,-2.0588892297\H,-2.772859415,0.0890546237,-3.0162430146\H,-2.9671339
 593,0.6464547086,-1.3110394993\C,-1.0262636407,1.0539723134,-2.1458173
 004\C,0.1334087625,0.7483116945,-1.5372147095\H,0.9810219704,1.4385810
 995,-1.5666615722\C,-1.1456951262,2.3835192129,-2.8053147955\O,-0.4316
 805353,3.3297447627,-2.497635003\N,-2.1354565911,2.5096701703,-3.72945
 74589\H,-2.0692538394,3.3707226043,-4.267921386\H,-2.4739691742,1.6979
 017618,-4.2517022746\C,0.5176931818,2.1378767833,3.7356868693\C,-1.103
 4879815,2.2403641045,1.5019201548\C,-1.835474196,2.9700437994,0.451494
 6703\C,-3.8420909156,3.3221427473,-0.9706807196\C,-2.9996217335,2.5176
 138407,-0.0330446868\O,-1.16767865,1.0376149008,1.6924565982\S,-0.1579
 011582,3.3120532503,2.5370637009\H,-0.3138859598,1.6558865242,4.267921
 386\H,1.0955188562,1.3638417476,3.2121093344\H,-4.1257303439,2.7406185
 222,-1.854796181\H,-3.2928336931,4.2028770823,-1.3300214799\H,-4.77040
 60167,3.6489943791,-0.4716424069\H,-3.3948745555,1.5793981255,0.370942
 5468\H,-1.4069810038,3.9216052012,0.1132152213\H,2.5276868824,-4.29784
 26568,-0.3308937902\H,1.155479717,2.6553865323,4.452284382\\Version=ES
 64L-G16RevA.03\HF=-1507.9019805\RMSD=8.766e-09\RMSF=7.269e-03\Dipole=-
 0.1333878,-0.9613566,-0.8459716\Quadrupole=10.6195075,-7.6158305,-3.00
 3677,-9.8677508,9.6773261,0.3648677\PG=C01 [X(C16H24N2O5S1)]\\@


 A MATHEMATICIAN IS A MACHINE FOR TURNING COFFEE INTO THEOREMS.
     -- QUOTED BY PAUL ERDOS
 Job cpu time:       0 days  2 hours 56 minutes  8.3 seconds.
 Elapsed time:       0 days  0 hours 11 minutes  1.7 seconds.
 File lengths (MBytes):  RWF=    435 Int=      0 D2E=      0 Chk=     48 Scr=      1
 Normal termination of Gaussian 16 at Sun Feb 19 04:14:06 2023.
