 Entering Gaussian System, Link 0=g16
 Initial command:
 /opt/gaussian/g16/l1.exe "/opt/gaussian/scratch16/Gau-3406088.inp" -scrdir="/opt/gaussian/scratch16/"
 Entering Link 1 = /opt/gaussian/g16/l1.exe PID=   3406090.
  
 Copyright (c) 1988,1990,1992,1993,1995,1998,2003,2009,2016,
            Gaussian, Inc.  All Rights Reserved.
  
 This is part of the Gaussian(R) 16 program.  It is based on
 the Gaussian(R) 09 system (copyright 2009, Gaussian, Inc.),
 the Gaussian(R) 03 system (copyright 2003, Gaussian, Inc.),
 the Gaussian(R) 98 system (copyright 1998, Gaussian, Inc.),
 the Gaussian(R) 94 system (copyright 1995, Gaussian, Inc.),
 the Gaussian 92(TM) system (copyright 1992, Gaussian, Inc.),
 the Gaussian 90(TM) system (copyright 1990, Gaussian, Inc.),
 the Gaussian 88(TM) system (copyright 1988, Gaussian, Inc.),
 the Gaussian 86(TM) system (copyright 1986, Carnegie Mellon
 University), and the Gaussian 82(TM) system (copyright 1983,
 Carnegie Mellon University). Gaussian is a federally registered
 trademark of Gaussian, Inc.
  
 This software contains proprietary and confidential information,
 including trade secrets, belonging to Gaussian, Inc.
  
 This software is provided under written license and may be
 used, copied, transmitted, or stored only in accord with that
 written license.
  
 The following legend is applicable only to US Government
 contracts under FAR:
  
                    RESTRICTED RIGHTS LEGEND
  
 Use, reproduction and disclosure by the US Government is
 subject to restrictions as set forth in subparagraphs (a)
 and (c) of the Commercial Computer Software - Restricted
 Rights clause in FAR 52.227-19.
  
 Gaussian, Inc.
 340 Quinnipiac St., Bldg. 40, Wallingford CT 06492
  
  
 ---------------------------------------------------------------
 Warning -- This program may not be used in any manner that
 competes with the business of Gaussian, Inc. or will provide
 assistance to any competitor of Gaussian, Inc.  The licensee
 of this program is prohibited from giving any competitor of
 Gaussian, Inc. access to this program.  By using this program,
 the user acknowledges that Gaussian, Inc. is engaged in the
 business of creating and licensing software in the field of
 computational chemistry and represents and warrants to the
 licensee that it is not a competitor of Gaussian, Inc. and that
 it will not use this program in any manner prohibited above.
 ---------------------------------------------------------------
  

 Cite this work as:
 Gaussian 16, Revision A.03,
 M. J. Frisch, G. W. Trucks, H. B. Schlegel, G. E. Scuseria, 
 M. A. Robb, J. R. Cheeseman, G. Scalmani, V. Barone, 
 G. A. Petersson, H. Nakatsuji, X. Li, M. Caricato, A. V. Marenich, 
 J. Bloino, B. G. Janesko, R. Gomperts, B. Mennucci, H. P. Hratchian, 
 J. V. Ortiz, A. F. Izmaylov, J. L. Sonnenberg, D. Williams-Young, 
 F. Ding, F. Lipparini, F. Egidi, J. Goings, B. Peng, A. Petrone, 
 T. Henderson, D. Ranasinghe, V. G. Zakrzewski, J. Gao, N. Rega, 
 G. Zheng, W. Liang, M. Hada, M. Ehara, K. Toyota, R. Fukuda, 
 J. Hasegawa, M. Ishida, T. Nakajima, Y. Honda, O. Kitao, H. Nakai, 
 T. Vreven, K. Throssell, J. A. Montgomery, Jr., J. E. Peralta, 
 F. Ogliaro, M. J. Bearpark, J. J. Heyd, E. N. Brothers, K. N. Kudin, 
 V. N. Staroverov, T. A. Keith, R. Kobayashi, J. Normand, 
 K. Raghavachari, A. P. Rendell, J. C. Burant, S. S. Iyengar, 
 J. Tomasi, M. Cossi, J. M. Millam, M. Klene, C. Adamo, R. Cammi, 
 J. W. Ochterski, R. L. Martin, K. Morokuma, O. Farkas, 
 J. B. Foresman, and D. J. Fox, Gaussian, Inc., Wallingford CT, 2016.
 
 ******************************************
 Gaussian 16:  ES64L-G16RevA.03 25-Dec-2016
                 9-Apr-2023 
 ******************************************
 %chk=17.chk
 %NProcShared=16
 Will use up to   16 processors via shared memory.
 %mem=20GB
 ----------------------------------------------------------------------
 #P M062X/Def2TZVP scf=(direct,conver=8) EmpiricalDispersion=GD3 NoSymm
  Force pop=(NBORead) Charge Prop=(Field,Read)
 ----------------------------------------------------------------------
 1/10=7,18=10,28=-2,30=1,38=1,125=101/1,3;
 2/12=2,15=1,17=6,18=5,29=2,40=1/2;
 3/5=44,7=101,11=2,25=1,30=1,71=1,74=-55,124=31/1,2,3;
 4//1;
 5/5=2,6=8,38=5/2;
 6/7=2,8=2,9=2,10=2,14=2,15=1,28=1,40=2/1,2,7;
 7/7=1,16=-2,29=1,30=1/1,2,3,16;
 1/10=7,18=10,28=-2,30=1/3;
 99/12=1/99;
 Leave Link    1 at Sun Apr  9 10:20:15 2023, MaxMem=  2684354560 cpu:               1.0 elap:               0.1
 (Enter /opt/gaussian/g16/l101.exe)
 ----------------------------------------------------------------------
 Gaussian run using SANDER external interface, route from template gau_
 job.tpl
 ----------------------------------------------------------------------
 Symbolic Z-matrix:
 Charge =  0 Multiplicity = 1
 C                     3.49765  -3.66975  -0.69882 
 H                     3.59103  -3.83298  -1.76876 
 H                     4.39453  -4.02319  -0.19803 
 C                     1.64451  -1.28939   0.98393 
 H                     0.96523  -2.16381   0.95118 
 O                     1.35826  -0.45207   2.06244 
 H                     0.4376   -0.15937   1.99785 
 C                     3.10227  -1.79435   1.04205 
 H                     3.19084  -2.67812   1.69639 
 O                     3.88054  -0.72241   1.50258 
 H                     4.80263  -1.00255   1.51988 
 C                     1.66412  -0.62995  -0.41949 
 H                     2.25049   0.29595  -0.32638 
 C                     3.38868  -2.17093  -0.44913 
 H                     4.33845  -1.7073   -0.74984 
 O                     2.33276  -1.58541  -1.23205 
 N                     0.36529  -0.27675  -0.98275 
 C                    -0.64492  -1.21276  -1.08043 
 H                    -0.39753  -2.23108  -0.82162 
 C                    -1.85449  -0.88149  -1.51612 
 H                    -2.61546  -1.63508  -1.62163 
 C                    -2.18055   0.50587  -1.85003 
 H                    -2.98763   0.5988   -2.56774 
 H                    -2.66405   1.12931  -0.83351 
 C                    -0.97973   1.30578  -2.14066 
 C                     0.19269   0.94051  -1.60745 
 H                     1.05599   1.57986  -1.69004 
 C                    -1.14045   2.62519  -2.8235 
 O                    -0.47548   3.58894  -2.54339 
 N                    -2.23744   2.69035  -3.73641 
 H                    -2.13377   3.51095  -4.3414 
 H                    -2.30844   1.84518  -4.31015 
 C                     0.66951   2.14152   3.79808 
 C                    -1.08221   2.05507   1.71255 
 C                    -1.82746   2.67369   0.65363 
 C                    -3.85839   3.07294  -0.69035 
 C                    -2.99507   2.19116   0.15758 
 O                    -1.21865   0.89633   2.12292 
 S                     0.03928   3.1547    2.45127 
 H                    -0.18041   1.7291    4.3414 
 H                     1.24692   1.32193   3.3748 
 H                    -4.07451   2.64046  -1.6636 
 H                    -3.36402   4.02319  -0.85458 
 H                    -4.80263   3.25178  -0.18094 
 H                    -3.52897   1.4647    0.77023 
 H                    -1.39956   3.57487   0.2428 
 H                     2.61753  -4.18685  -0.31658 
 H                     1.30249   2.71097   4.47864 
 
 ITRead=  0  0  0  0  0  0  0  0  0  0  0  0  0  0  0  0  0  0  0  0
 ITRead=  0  0  0  0  0  0  0  0  0  0  0  0  0  0  0  0  0  0  0  0
 ITRead=  0  0  0  0  0  0  0  0
 MicOpt= -1 -1 -1 -1 -1 -1 -1 -1 -1 -1 -1 -1 -1 -1 -1 -1 -1 -1 -1 -1
 MicOpt= -1 -1 -1 -1 -1 -1 -1 -1 -1 -1 -1 -1 -1 -1 -1 -1 -1 -1 -1 -1
 MicOpt= -1 -1 -1 -1 -1 -1 -1 -1
 NAtoms=     48 NQM=       48 NQMF=       0 NMMI=      0 NMMIF=      0
                NMic=       0 NMicF=      0.
                    Isotopes and Nuclear Properties:
 (Nuclear quadrupole moments (NQMom) in fm**2, nuclear magnetic moments (NMagM)
  in nuclear magnetons)

  Atom         1           2           3           4           5           6           7           8           9          10
 IAtWgt=          12           1           1          12           1          16           1          12           1          16
 AtmWgt=  12.0000000   1.0078250   1.0078250  12.0000000   1.0078250  15.9949146   1.0078250  12.0000000   1.0078250  15.9949146
 NucSpn=           0           1           1           0           1           0           1           0           1           0
 AtZEff=  -0.0000000  -0.0000000  -0.0000000  -0.0000000  -0.0000000  -0.0000000  -0.0000000  -0.0000000  -0.0000000  -0.0000000
 NQMom=    0.0000000   0.0000000   0.0000000   0.0000000   0.0000000   0.0000000   0.0000000   0.0000000   0.0000000   0.0000000
 NMagM=    0.0000000   2.7928460   2.7928460   0.0000000   2.7928460   0.0000000   2.7928460   0.0000000   2.7928460   0.0000000
 AtZNuc=   6.0000000   1.0000000   1.0000000   6.0000000   1.0000000   8.0000000   1.0000000   6.0000000   1.0000000   8.0000000

  Atom        11          12          13          14          15          16          17          18          19          20
 IAtWgt=           1          12           1          12           1          16          14          12           1          12
 AtmWgt=   1.0078250  12.0000000   1.0078250  12.0000000   1.0078250  15.9949146  14.0030740  12.0000000   1.0078250  12.0000000
 NucSpn=           1           0           1           0           1           0           2           0           1           0
 AtZEff=  -0.0000000  -0.0000000  -0.0000000  -0.0000000  -0.0000000  -0.0000000  -0.0000000  -0.0000000  -0.0000000  -0.0000000
 NQMom=    0.0000000   0.0000000   0.0000000   0.0000000   0.0000000   0.0000000   2.0440000   0.0000000   0.0000000   0.0000000
 NMagM=    2.7928460   0.0000000   2.7928460   0.0000000   2.7928460   0.0000000   0.4037610   0.0000000   2.7928460   0.0000000
 AtZNuc=   1.0000000   6.0000000   1.0000000   6.0000000   1.0000000   8.0000000   7.0000000   6.0000000   1.0000000   6.0000000

  Atom        21          22          23          24          25          26          27          28          29          30
 IAtWgt=           1          12           1           1          12          12           1          12          16          14
 AtmWgt=   1.0078250  12.0000000   1.0078250   1.0078250  12.0000000  12.0000000   1.0078250  12.0000000  15.9949146  14.0030740
 NucSpn=           1           0           1           1           0           0           1           0           0           2
 AtZEff=  -0.0000000  -0.0000000  -0.0000000  -0.0000000  -0.0000000  -0.0000000  -0.0000000  -0.0000000  -0.0000000  -0.0000000
 NQMom=    0.0000000   0.0000000   0.0000000   0.0000000   0.0000000   0.0000000   0.0000000   0.0000000   0.0000000   2.0440000
 NMagM=    2.7928460   0.0000000   2.7928460   2.7928460   0.0000000   0.0000000   2.7928460   0.0000000   0.0000000   0.4037610
 AtZNuc=   1.0000000   6.0000000   1.0000000   1.0000000   6.0000000   6.0000000   1.0000000   6.0000000   8.0000000   7.0000000

  Atom        31          32          33          34          35          36          37          38          39          40
 IAtWgt=           1           1          12          12          12          12          12          16          32           1
 AtmWgt=   1.0078250   1.0078250  12.0000000  12.0000000  12.0000000  12.0000000  12.0000000  15.9949146  31.9720718   1.0078250
 NucSpn=           1           1           0           0           0           0           0           0           0           1
 AtZEff=  -0.0000000  -0.0000000  -0.0000000  -0.0000000  -0.0000000  -0.0000000  -0.0000000  -0.0000000  -0.0000000  -0.0000000
 NQMom=    0.0000000   0.0000000   0.0000000   0.0000000   0.0000000   0.0000000   0.0000000   0.0000000   0.0000000   0.0000000
 NMagM=    2.7928460   2.7928460   0.0000000   0.0000000   0.0000000   0.0000000   0.0000000   0.0000000   0.0000000   2.7928460
 AtZNuc=   1.0000000   1.0000000   6.0000000   6.0000000   6.0000000   6.0000000   6.0000000   8.0000000  16.0000000   1.0000000

  Atom        41          42          43          44          45          46          47          48
 IAtWgt=           1           1           1           1           1           1           1           1
 AtmWgt=   1.0078250   1.0078250   1.0078250   1.0078250   1.0078250   1.0078250   1.0078250   1.0078250
 NucSpn=           1           1           1           1           1           1           1           1
 AtZEff=  -0.0000000  -0.0000000  -0.0000000  -0.0000000  -0.0000000  -0.0000000  -0.0000000  -0.0000000
 NQMom=    0.0000000   0.0000000   0.0000000   0.0000000   0.0000000   0.0000000   0.0000000   0.0000000
 NMagM=    2.7928460   2.7928460   2.7928460   2.7928460   2.7928460   2.7928460   2.7928460   2.7928460
 AtZNuc=   1.0000000   1.0000000   1.0000000   1.0000000   1.0000000   1.0000000   1.0000000   1.0000000
 Background charge distribution read from input stream:
 Leave Link  101 at Sun Apr  9 10:20:15 2023, MaxMem=  2684354560 cpu:               3.9 elap:               0.2
 (Enter /opt/gaussian/g16/l103.exe)

 GradGradGradGradGradGradGradGradGradGradGradGradGradGradGradGradGradGrad
 Berny optimization.
 Initialization pass.
 Trust Radius=3.00D-01 FncErr=1.00D-07 GrdErr=1.00D-07 EigMax=2.50D+02 EigMin=1.00D-04
 Number of steps in this run=      2 maximum allowed number of steps=      2.
 GradGradGradGradGradGradGradGradGradGradGradGradGradGradGradGradGradGrad

 Leave Link  103 at Sun Apr  9 10:20:15 2023, MaxMem=  2684354560 cpu:               0.4 elap:               0.0
 (Enter /opt/gaussian/g16/l202.exe)
 ---------------------------------------------------------------------------------------------------
                            Z-MATRIX (ANGSTROMS AND DEGREES)
   CD    Cent   Atom    N1       Length/X        N2       Alpha/Y        N3        Beta/Z          J
 ---------------------------------------------------------------------------------------------------
      1      1  C        0   3.497647         -3.669755         -0.698816
      2      2  H        0   3.591032         -3.832977         -1.768758
      3      3  H        0   4.394535         -4.023191         -0.198030
      4      4  C        0   1.644514         -1.289386          0.983933
      5      5  H        0   0.965225         -2.163808          0.951179
      6      6  O        0   1.358260         -0.452072          2.062439
      7      7  H        0   0.437597         -0.159367          1.997847
      8      8  C        0   3.102271         -1.794345          1.042047
      9      9  H        0   3.190839         -2.678123          1.696392
     10     10  O        0   3.880542         -0.722407          1.502581
     11     11  H        0   4.802633         -1.002551          1.519882
     12     12  C        0   1.664117         -0.629954         -0.419494
     13     13  H        0   2.250486          0.295954         -0.326377
     14     14  C        0   3.388679         -2.170933         -0.449130
     15     15  H        0   4.338454         -1.707301         -0.749842
     16     16  O        0   2.332757         -1.585414         -1.232046
     17     17  N        0   0.365287         -0.276752         -0.982750
     18     18  C        0  -0.644922         -1.212757         -1.080431
     19     19  H        0  -0.397527         -2.231083         -0.821618
     20     20  C        0  -1.854493         -0.881489         -1.516123
     21     21  H        0  -2.615458         -1.635082         -1.621629
     22     22  C        0  -2.180548          0.505870         -1.850032
     23     23  H        0  -2.987628          0.598796         -2.567739
     24     24  H        0  -2.664050          1.129313         -0.833515
     25     25  C        0  -0.979725          1.305776         -2.140658
     26     26  C        0   0.192687          0.940514         -1.607448
     27     27  H        0   1.055987          1.579859         -1.690040
     28     28  C        0  -1.140449          2.625188         -2.823498
     29     29  O        0  -0.475481          3.588939         -2.543390
     30     30  N        0  -2.237440          2.690354         -3.736415
     31     31  H        0  -2.133772          3.510951         -4.341403
     32     32  H        0  -2.308439          1.845182         -4.310148
     33     33  C        0   0.669507          2.141523          3.798075
     34     34  C        0  -1.082213          2.055070          1.712547
     35     35  C        0  -1.827456          2.673691          0.653634
     36     36  C        0  -3.858386          3.072940         -0.690348
     37     37  C        0  -2.995073          2.191165          0.157585
     38     38  O        0  -1.218647          0.896328          2.122920
     39     39  S        0   0.039279          3.154703          2.451269
     40     40  H        0  -0.180408          1.729103          4.341403
     41     41  H        0   1.246919          1.321929          3.374797
     42     42  H        0  -4.074515          2.640462         -1.663596
     43     43  H        0  -3.364020          4.023191         -0.854577
     44     44  H        0  -4.802633          3.251778         -0.180936
     45     45  H        0  -3.528971          1.464695          0.770234
     46     46  H        0  -1.399558          3.574870          0.242804
     47     47  H        0   2.617531         -4.186855         -0.316581
     48     48  H        0   1.302486          2.710972          4.478638
 ---------------------------------------------------------------------------------------------------
                         Z-Matrix orientation:                         
 ---------------------------------------------------------------------
 Center     Atomic      Atomic             Coordinates (Angstroms)
 Number     Number       Type             X           Y           Z
 ---------------------------------------------------------------------
      1          6           0        3.497647   -3.669755   -0.698816
      2          1           0        3.591032   -3.832977   -1.768758
      3          1           0        4.394535   -4.023191   -0.198030
      4          6           0        1.644514   -1.289386    0.983933
      5          1           0        0.965225   -2.163808    0.951179
      6          8           0        1.358260   -0.452072    2.062439
      7          1           0        0.437597   -0.159367    1.997847
      8          6           0        3.102271   -1.794345    1.042047
      9          1           0        3.190839   -2.678123    1.696392
     10          8           0        3.880542   -0.722407    1.502581
     11          1           0        4.802633   -1.002551    1.519882
     12          6           0        1.664117   -0.629954   -0.419494
     13          1           0        2.250486    0.295954   -0.326377
     14          6           0        3.388679   -2.170933   -0.449130
     15          1           0        4.338454   -1.707301   -0.749842
     16          8           0        2.332757   -1.585414   -1.232046
     17          7           0        0.365287   -0.276752   -0.982750
     18          6           0       -0.644922   -1.212757   -1.080431
     19          1           0       -0.397527   -2.231083   -0.821618
     20          6           0       -1.854493   -0.881489   -1.516123
     21          1           0       -2.615458   -1.635082   -1.621629
     22          6           0       -2.180548    0.505870   -1.850032
     23          1           0       -2.987628    0.598796   -2.567739
     24          1           0       -2.664050    1.129313   -0.833515
     25          6           0       -0.979725    1.305776   -2.140658
     26          6           0        0.192687    0.940514   -1.607448
     27          1           0        1.055987    1.579859   -1.690040
     28          6           0       -1.140449    2.625188   -2.823498
     29          8           0       -0.475481    3.588939   -2.543390
     30          7           0       -2.237440    2.690354   -3.736415
     31          1           0       -2.133772    3.510951   -4.341403
     32          1           0       -2.308439    1.845182   -4.310148
     33          6           0        0.669507    2.141523    3.798075
     34          6           0       -1.082213    2.055070    1.712547
     35          6           0       -1.827456    2.673691    0.653634
     36          6           0       -3.858386    3.072940   -0.690348
     37          6           0       -2.995073    2.191165    0.157585
     38          8           0       -1.218647    0.896328    2.122920
     39         16           0        0.039279    3.154703    2.451269
     40          1           0       -0.180408    1.729103    4.341403
     41          1           0        1.246919    1.321929    3.374797
     42          1           0       -4.074515    2.640462   -1.663596
     43          1           0       -3.364020    4.023191   -0.854577
     44          1           0       -4.802633    3.251778   -0.180936
     45          1           0       -3.528971    1.464695    0.770234
     46          1           0       -1.399558    3.574870    0.242804
     47          1           0        2.617531   -4.186855   -0.316581
     48          1           0        1.302486    2.710972    4.478638
 ---------------------------------------------------------------------
                    Distance matrix (angstroms):
                    1          2          3          4          5
     1  C    0.000000
     2  H    1.086342   0.000000
     3  H    1.086330   1.774538   0.000000
     4  C    3.454258   4.223280   4.053806   0.000000
     5  H    3.376909   4.132680   4.066713   1.107755   0.000000
     6  O    4.749208   5.576186   5.203995   1.395066   2.078320
     7  H    5.381330   6.134074   5.950493   1.939487   2.322001
     8  C    2.589224   3.506498   2.859281   1.543832   2.170651
     9  H    2.610457   3.674385   2.616663   2.197114   2.402752
    10  O    3.698596   4.523397   3.748525   2.364378   3.298599
    11  H    3.706695   4.504936   3.498862   3.216090   4.049400
    12  C    3.560933   3.974025   4.360996   1.550755   2.172534
    13  H    4.173843   4.574450   4.823736   2.144159   3.055237
    14  C    1.523379   2.131843   2.122653   2.423408   2.798936
    15  H    2.135600   2.472919   2.381384   3.230781   3.805331
    16  O    2.446585   2.631132   3.356021   2.339203   2.640294
    17  N    4.626528   4.865180   5.557556   2.555326   2.767849
    18  C    4.831495   5.028186   5.837233   3.083664   2.761252
    19  H    4.154182   4.401334   5.154063   2.883876   2.237058
    20  C    6.089977   6.199101   7.117444   4.319688   3.960143
    21  H    6.508573   6.585811   7.541200   5.005579   4.440741
    22  C    7.141640   7.221034   8.153111   5.087769   4.986968
    23  H    7.985749   7.972311   9.026329   6.134847   5.969909
    24  H    7.811254   8.038970   8.762177   5.264688   5.215497
    25  C    6.847019   6.887446   7.813729   4.835759   5.037887
    26  C    5.744819   5.861825   6.654349   3.714231   4.096365
    27  H    5.873897   5.977578   6.690752   3.965988   4.582501
    28  C    8.102624   8.075103   9.040469   6.129962   6.451088
    29  O    8.478021   8.498319   9.336075   6.382354   6.883440
    30  N    9.086760   8.966416  10.078440   7.293119   7.469504
    31  H    9.825673   9.660495  10.795815   8.104189   8.355722
    32  H    8.784468   8.573442   9.812093   7.312909   7.380409
    33  C    7.873459   8.672923   8.237013   4.543255   5.169927
    34  C    7.717733   8.284190   8.401805   4.376220   4.750854
    35  C    8.391969   8.807084   9.180780   5.279171   5.593657
    36  C    9.978738  10.215111  10.895327   7.219073   7.306529
    37  C    8.788584   9.131147   9.661831   5.858570   5.939658
    38  O    7.145259   7.787457   7.816411   3.777873   3.937855
    39  S    8.273848   8.902317   8.803931   4.947704   5.603053
    40  H    8.251033   9.082651   8.638601   4.869725   5.287802
    41  H    6.824735   7.650103   7.158414   3.562763   4.254837
    42  H    9.903901  10.033796  10.875521   7.427004   7.437542
    43  H   10.309614  10.532229  11.196897   7.529210   7.764153
    44  H   10.819910  11.098132  11.726609   7.971499   7.992399
    45  H    8.825760   9.230723   9.686918   5.864774   5.778977
    46  H    8.795104   9.155794   9.565374   5.785900   6.247113
    47  H    1.090000   1.783747   1.788458   3.321660   2.903455
    48  H    8.505200   9.332238   8.762473   5.322857   6.026623
                    6          7          8          9         10
     6  O    0.000000
     7  H    0.968230   0.000000
     8  C    2.425793   3.269127   0.000000
     9  H    2.906481   3.743707   1.103211   0.000000
    10  O    2.597773   3.523659   1.402444   2.082805   0.000000
    11  H    3.530028   4.471347   1.935587   2.331647   0.963863
    12  C    2.507027   2.751243   2.358007   3.317054   2.935210
    13  H    2.657453   2.982600   2.639597   3.717659   2.653155
    14  C    3.658560   4.329316   1.564434   2.213514   2.479784
    15  H    4.285566   5.016231   2.178667   2.871163   2.500622
    16  O    3.617698   4.007174   2.409834   3.241306   3.258620
    17  N    3.207789   2.983784   3.727462   4.574727   4.328105
    18  C    3.803815   3.428888   4.345643   4.956924   5.233757
    19  H    3.816471   3.597057   3.989056   4.406425   5.097046
    20  C    4.828280   4.257126   5.652172   6.245279   6.482940
    21  H    5.546378   4.959787   6.309751   6.768329   7.265788
    22  C    5.361739   4.701425   6.446959   7.180997   7.034592
    23  H    6.436585   5.757739   7.472921   8.191121   8.092271
    24  H    5.202529   4.392894   6.731713   7.428103   7.191515
    25  C    5.120765   4.613314   6.033494   6.927337   6.403820
    26  C    4.094622   3.777284   4.792177   5.744459   5.102731
    27  H    4.277992   4.124054   4.799670   5.844306   4.844726
    28  C    6.291698   5.786998   7.243990   8.204545   7.425073
    29  O    6.395784   5.958721   7.391578   8.407956   7.343877
    30  N    7.512031   6.939632   8.453327   9.370280   8.747784
    31  H    8.301147   7.763328   9.194773  10.154362   9.393905
    32  H    7.702722   7.165873   8.436109   9.315625   8.870390
    33  C    3.195865   2.930649   5.385638   5.831224   4.876693
    34  C    3.516262   2.700917   5.725162   6.376703   5.690993
    35  C    4.680162   3.868281   6.664565   7.410299   6.695927
    36  C    6.871459   6.010797   8.668472   9.405468   8.894077
    37  C    5.437526   4.549153   7.337859   8.021433   7.587621
    38  O    2.909002   1.968065   5.203685   5.692292   5.385801
    39  S    3.860017   3.368577   5.988398   6.672632   5.539611
    40  H    3.509801   3.072541   5.837501   6.146952   5.528121
    41  H    2.209471   2.178356   4.312218   4.753555   3.823673
    42  H    7.277510   6.450144   8.859699   9.610526   9.198722
    43  H    7.130000   6.331067   8.902462   9.715000   8.975554
    44  H    7.530461   6.621406   9.457619  10.128360   9.696696
    45  H    5.406369   4.458506   7.393822   7.948368   7.760195
    46  H    5.208925   4.516619   7.052215   7.892058   6.923373
    47  H    4.603705   5.131213   2.793733   2.580119   4.111806
    48  H    3.980701   3.891170   5.945357   6.352095   5.224115
                   11         12         13         14         15
    11  H    0.000000
    12  C    3.708139   0.000000
    13  H    3.407088   1.099911   0.000000
    14  C    2.690983   2.312923   2.719574   0.000000
    15  H    2.421525   2.902049   2.924374   1.098843   0.000000
    16  O    3.743411   1.421346   2.089629   1.439015   2.066446
    17  N    5.145872   1.459098   2.076726   3.607433   4.229276
    18  C    6.040006   2.471469   3.350849   4.193636   5.018755
    19  H    5.833831   2.641154   3.693664   3.804960   4.765398
    20  C    7.317740   3.694115   4.433139   5.503817   6.294581
    21  H    8.080673   4.557431   5.392957   6.140974   7.008718
    22  C    7.899144   4.256522   4.690378   6.335936   6.971795
    23  H    8.942099   5.269110   5.705546   7.267544   7.892675
    24  H    8.113857   4.690358   5.010422   6.904701   7.555689
    25  C    7.222437   3.701264   3.840002   5.833672   6.268655
    26  C    5.899772   2.458193   2.508214   4.608381   4.993376
    27  H    5.568644   2.620569   2.221444   4.588001   4.739618
    28  C    8.206441   4.923492   4.812420   7.010949   7.286212
    29  O    8.090146   5.185352   4.815578   7.245260   7.378411
    30  N    9.530417   6.103160   6.123968   8.129673   8.455848
    31  H   10.141010   6.852184   6.758576   8.827857   9.056443
    32  H    9.626328   6.086435   6.249346   7.968300   8.335292
    33  C    5.670811   5.143756   4.787142   6.635505   6.997011
    34  C    6.634575   4.392867   4.284692   6.520799   7.042899
    35  C    7.630414   4.925115   4.821169   7.203786   7.692937
    36  C    9.823849   6.654534   6.720301   8.948539   9.489069
    37  C    8.535801   5.477205   5.598386   7.755533   8.354764
    38  O    6.342335   4.135666   4.288868   6.103358   6.775914
    39  S    6.390601   5.020459   4.558201   6.927712   7.236650
    40  H    6.344573   5.624372   5.454478   7.134274   7.625599
    41  H    4.635409   4.287254   3.969693   5.604430   5.978835
    42  H   10.109888   6.721257   6.876809   8.962350   9.513991
    43  H    9.878784   6.864635   6.759731   9.172269   9.600917
    44  H   10.642051   7.546099   7.648826   9.827274  10.415162
    45  H    8.721520   5.724611   5.997552   7.909395   8.617921
    46  H    7.813507   5.244548   4.939441   7.511341   7.862027
    47  H    4.276338   3.683902   4.497821   2.162448   3.049177
    48  H    5.898772   5.940055   5.460695   7.243486   7.488340
                   16         17         18         19         20
    16  O    0.000000
    17  N    2.376064   0.000000
    18  C    3.004734   1.380641   0.000000
    19  H    2.835452   2.104106   1.079434   0.000000
    20  C    4.255499   2.361698   1.327640   2.103923   0.000000
    21  H    4.963776   3.337375   2.086688   2.431965   1.076151
    22  C    5.012513   2.801062   2.429838   3.424575   1.463753
    23  H    5.904350   3.810619   3.313923   4.214948   2.140359
    24  H    5.700582   3.343078   3.102118   4.053336   2.272589
    25  C    4.489665   2.377857   2.753032   3.819450   2.437087
    26  C    3.331837   1.379048   2.369791   3.320378   2.742076
    27  H    3.443668   2.103409   3.326172   4.170149   3.815676
    28  C    5.685512   3.751913   4.244250   5.304982   3.809971
    29  O    6.031563   4.252770   5.022474   6.069863   4.789748
    30  N    6.740976   4.812544   4.982434   6.008483   4.223081
    31  H    7.455931   5.645577   5.929927   6.955170   5.230080
    32  H    6.540978   4.766864   4.748616   5.695381   3.930316
    33  C    6.477544   5.366274   6.064548   6.449792   6.614370
    34  C    5.795323   3.846723   4.320954   5.026122   4.432167
    35  C    6.245249   4.023803   4.416995   5.317695   4.165079
    36  C    7.766849   5.398643   5.370821   6.334623   4.509435
    37  C    6.676780   4.322383   4.317705   5.221337   3.680139
    38  O    5.479717   3.678335   3.877996   4.373241   4.099703
    39  S    6.426162   4.865558   5.658246   6.317380   5.968033
    40  H    6.954520   5.715579   6.186000   6.510530   6.627848
    41  H    5.554700   4.724540   5.463767   5.739164   6.196363
    42  H    7.687482   5.355887   5.191289   6.161259   4.165859
    43  H    8.003262   5.693300   5.904207   6.922219   5.174186
    44  H    8.684299   6.308790   6.166663   7.062379   5.249586
    45  H    6.904501   4.612032   4.348730   5.098893   3.679114
    46  H    6.537116   4.410403   5.024122   5.987166   4.812476
    47  H    2.772484   4.561282   4.480215   3.629143   5.688879
    48  H    7.220270   6.295363   7.077520   7.443566   7.668732
                   21         22         23         24         25
    21  H    0.000000
    22  C    2.196586   0.000000
    23  H    2.454352   1.084029   0.000000
    24  H    2.874954   1.286764   1.842196   0.000000
    25  C    3.404946   1.471832   2.171150   2.139325   0.000000
    26  C    3.810456   2.424872   3.339661   2.965731   1.338760
    27  H    4.880577   3.413826   4.252490   3.843865   2.102928
    28  C    4.665838   2.553616   2.753861   2.918739   1.494307
    29  O    5.720100   3.590726   3.905436   3.709888   2.372612
    30  N    4.829557   2.886806   2.510618   3.323504   2.458728
    31  H    5.840449   3.903797   3.515053   4.273017   3.322334
    32  H    4.408473   2.803977   2.247391   3.567339   2.600601
    33  C    7.377461   6.534470   7.501883   5.795584   6.219887
    34  C    5.204305   4.037119   4.906342   3.137142   3.926720
    35  C    4.935919   3.330536   4.003553   2.301435   3.224578
    36  C    4.957583   3.278698   3.225556   2.285744   3.675997
    37  C    4.236729   2.744849   3.156435   1.489760   3.182367
    38  O    4.730831   4.106343   5.021962   3.299087   4.289851
    39  S    6.824820   5.517712   6.394160   4.711687   5.053978
    40  H    7.266702   6.620478   7.542833   5.771308   6.544863
    41  H    6.973245   6.301771   7.332670   5.748275   5.947978
    42  H    4.517840   2.859782   2.483384   2.227558   3.403924
    43  H    5.758886   3.842276   3.847477   2.977404   3.837084
    44  H    5.544432   4.147436   4.003672   3.082898   4.716149
    45  H    4.020464   3.098933   3.490687   1.852722   3.872622
    46  H    5.665520   3.795875   4.390688   2.956036   3.317520
    47  H    5.966479   6.884381   7.706360   7.511588   6.814434
    48  H    8.452912   7.552885   8.515739   6.815719   7.141298
                   26         27         28         29         30
    26  C    0.000000
    27  H    1.077437   0.000000
    28  C    2.468634   2.683612   0.000000
    29  O    2.887316   2.666459   1.203934   0.000000
    30  N    3.674229   4.033301   1.428654   2.309819   0.000000
    31  H    4.415208   4.575304   2.018738   2.447215   1.024762
    32  H    3.791918   4.272555   2.045174   3.085750   1.023976
    33  C    5.557829   5.530302   6.881505   6.604559   8.094449
    34  C    3.726925   4.046643   4.572104   4.564415   5.606186
    35  C    3.492474   3.873438   3.544684   3.589775   4.409183
    36  C    4.668994   5.232565   3.483962   3.891538   3.471651
    37  C    3.852438   4.494274   3.537635   3.949352   3.998303
    38  O    3.988666   4.492197   5.240432   5.438465   6.211946
    39  S    4.625943   4.545797   5.430959   5.039857   6.609577
    40  H    6.012479   6.158673   7.284261   7.137678   8.390860
    41  H    5.106824   5.074993   6.768816   6.567415   8.036335
    42  H    4.593689   5.239049   3.155052   3.824486   2.770183
    43  H    4.766537   5.119017   3.282580   3.374067   3.369069
    44  H    5.685956   6.276635   4.559314   4.941570   4.420050
    45  H    4.447345   5.204618   4.468410   4.981598   4.845635
    46  H    3.591449   3.707514   3.220441   2.935472   4.161562
    47  H    5.816883   6.130236   8.173799   8.659583   9.086365
    48  H    6.434798   6.276366   7.700421   7.296635   8.945312
                   31         32         33         34         35
    31  H    0.000000
    32  H    1.675192   0.000000
    33  C    8.716927   8.642874   0.000000
    34  C    6.314719   6.149840   2.724964   0.000000
    35  C    5.073976   5.055384   4.050375   1.435052   0.000000
    36  C    4.061570   4.124643   6.443237   3.810131   2.467866
    37  C    4.767029   4.533410   5.165732   2.468899   1.357286
    38  O    7.032864   6.593355   2.814567   1.236812   2.385051
    39  S    7.140691   7.276220   1.799336   1.735698   2.635823
    40  H    9.076439   8.910181   1.089794   2.798284   4.147850
    41  H    8.704058   8.483675   1.088257   2.953883   4.322472
    42  H    3.419779   3.279593   7.251520   4.549164   3.227992
    43  H    3.732809   4.218879   6.438726   3.958569   2.541039
    44  H    4.949695   5.024929   6.856349   4.342685   3.143624
    45  H    5.680016   5.238773   5.220454   2.687586   2.090555
    46  H    4.643071   4.954518   4.356085   2.137907   1.078890
    47  H    9.901025   8.752099   7.795740   7.534394   8.232030
    48  H    9.499525   9.541024   1.090000   3.710561   4.942528
                   36         37         38         39         40
    36  C    0.000000
    37  C    1.497273   0.000000
    38  O    4.429485   2.948700   0.000000
    39  S    5.006819   3.923861   2.605849   0.000000
    40  H    6.375888   5.063613   2.587107   2.377647   0.000000
    41  H    6.756891   5.394490   2.797740   2.381251   1.771265
    42  H    1.086720   2.164199   5.053284   5.841221   7.214891
    43  H    1.083672   2.125303   4.821347   4.823415   6.511255
    44  H    1.087698   2.122916   4.868352   5.511991   6.643422
    45  H    2.197332   1.090020   2.736859   4.291202   4.902656
    46  H    2.677413   2.113663   3.277523   2.669103   4.657435
    47  H    9.735596   8.509130   6.819543   8.258744   8.032673
    48  H    7.313279   6.116430   3.898520   2.429571   1.783781
                   41         42         43         44         45
    41  H    0.000000
    42  H    7.445911   0.000000
    43  H    6.815070   1.752499   0.000000
    44  H    7.277681   1.761290   1.765921   0.000000
    45  H    5.441806   2.757457   3.035312   2.391779   0.000000
    46  H    4.678565   3.415095   2.294416   3.444541   3.043915
    47  H    6.771377   9.654542  10.172180  10.507640   8.420254
    48  H    1.775103   8.163587   7.207037   7.699129   6.216788
                   46         47         48
    46  H    0.000000
    47  H    8.757528   0.000000
    48  H    5.098005   8.503145   0.000000
 Symmetry turned off by external request.
 Stoichiometry    C16H24N2O5S
 Framework group  C1[X(C16H24N2O5S)]
 Deg. of freedom   138
 Full point group                 C1      NOp   1
 Rotational constants (GHZ):           0.2876044           0.1667085           0.1252178
 Leave Link  202 at Sun Apr  9 10:20:15 2023, MaxMem=  2684354560 cpu:               0.0 elap:               0.0
 (Enter /opt/gaussian/g16/l301.exe)
 Standard basis: def2TZVP (5D, 7F)
 Ernie: Thresh=  0.10000D-02 Tol=  0.10000D-05 Strict=F.
   894 basis functions,  1434 primitive gaussians,  1014 cartesian basis functions
    95 alpha electrons       95 beta electrons
       nuclear repulsion energy      2432.4188405823 Hartrees.
 IExCor= 4336 DFT=T Ex+Corr=M062X ExCW=0 ScaHFX=  0.540000
 ScaDFX=  1.000000  1.000000  1.000000  1.000000 ScalE2=  1.000000  1.000000
 IRadAn=      5 IRanWt=     -1 IRanGd=            0 ICorTp=0 IEmpDi=131
 NAtoms=   48 NActive=   48 NUniq=   48 SFac= 1.00D+00 NAtFMM=   60 NAOKFM=F Big=F
 Integral buffers will be    131072 words long.
 Raffenetti 2 integral format.
 Two-electron integral symmetry is turned off.
 R6Disp:  Grimme-D3 Dispersion energy=       -0.0041605214 Hartrees.
 Nuclear repulsion after empirical dispersion term =     2432.4146800609 Hartrees.
 Leave Link  301 at Sun Apr  9 10:20:15 2023, MaxMem=  2684354560 cpu:               0.9 elap:               0.1
 (Enter /opt/gaussian/g16/l302.exe)
 NPDir=0 NMtPBC=     1 NCelOv=     1 NCel=       1 NClECP=     1 NCelD=      1
         NCelK=      1 NCelE2=     1 NClLst=     1 CellRange=     0.0.
 One-electron integrals computed using PRISM.
   1 Symmetry operations used in ECPInt.
 ECPInt:  NShTT=   65703 NPrTT=  200010 LenC2=   56000 LenP2D=  118602.
 LDataN:  DoStor=T MaxTD1= 6 Len=  172
 NBasis=   894 RedAO= T EigKep=  3.21D-05  NBF=   894
 NBsUse=   894 1.00D-06 EigRej= -1.00D+00 NBFU=   894
 Precomputing XC quadrature grid using
 IXCGrd= 4 IRadAn=           5 IRanWt=          -1 IRanGd=           0 AccXCQ= 0.00D+00.
 Generated NRdTot=       0 NPtTot=           0 NUsed=           0 NTot=          32
 NSgBfM=   995   995   995   995   995 MxSgAt=    48 MxSgA2=    48.
 Leave Link  302 at Sun Apr  9 10:20:17 2023, MaxMem=  2684354560 cpu:              35.8 elap:               2.2
 (Enter /opt/gaussian/g16/l303.exe)
 DipDrv:  MaxL=1.
 Leave Link  303 at Sun Apr  9 10:20:18 2023, MaxMem=  2684354560 cpu:               4.7 elap:               0.3
 (Enter /opt/gaussian/g16/l401.exe)
 ExpMin= 9.52D-02 ExpMax= 6.07D+04 ExpMxC= 2.07D+03 IAcc=3 IRadAn=         5 AccDes= 0.00D+00
 Harris functional with IExCor= 1009 and IRadAn=       5 diagonalized for initial guess.
 HarFok:  IExCor= 1009 AccDes= 0.00D+00 IRadAn=         5 IDoV= 1 UseB2=F ITyADJ=14
 ICtDFT=  3500011 ScaDFX=  1.000000  1.000000  1.000000  1.000000
 FoFCou: FMM=F IPFlag=           0 FMFlag=      100000 FMFlg1=           0
         NFxFlg=           0 DoJE=T BraDBF=F KetDBF=T FulRan=T
         wScrn=  0.000000 ICntrl=       500 IOpCl=  0 I1Cent=   200000004 NGrid=           0
         NMat0=    1 NMatS0=      1 NMatT0=    0 NMatD0=    1 NMtDS0=    0 NMtDT0=    0
 Symmetry not used in FoFCou.
 Harris En= -1507.20725041595    
 JPrj=0 DoOrth=F DoCkMO=F.
 Leave Link  401 at Sun Apr  9 10:20:27 2023, MaxMem=  2684354560 cpu:             147.3 elap:               9.2
 (Enter /opt/gaussian/g16/l502.exe)
 Two-electron integral symmetry not used.
 Closed shell SCF:
 Using DIIS extrapolation, IDIIS=  1040.
 NGot=  2684354560 LenX=  2682275214 LenY=  2681246004
 Requested convergence on RMS density matrix=1.00D-08 within 128 cycles.
 Requested convergence on MAX density matrix=1.00D-06.
 Requested convergence on             energy=1.00D-06.
 No special actions if energy rises.
 Fock matrices will be formed incrementally for  20 cycles.
 Integral accuracy reduced to 1.0D-05 until final iterations.

 Cycle   1  Pass 0  IDiag  1:
 FoFJK:  IHMeth= 1 ICntrl=       0 DoSepK=F KAlg= 0 I1Cent=           0 FoldK=F
 IRaf= 780000000 NMat=       1 IRICut=       1 DoRegI=T DoRafI=F ISym2E= 0 IDoP0=0 IntGTp=1.
 FoFCou: FMM=F IPFlag=           0 FMFlag=      100000 FMFlg1=           0
         NFxFlg=           0 DoJE=F BraDBF=F KetDBF=F FulRan=T
         wScrn=  0.000000 ICntrl=         0 IOpCl=  0 I1Cent=           0 NGrid=           0
         NMat0=    1 NMatS0=      1 NMatT0=    0 NMatD0=    1 NMtDS0=    0 NMtDT0=    0
 Symmetry not used in FoFCou.
 E= -1507.10256053387    
 DIIS: error= 1.57D-02 at cycle   1 NSaved=   1.
 NSaved= 1 IEnMin= 1 EnMin= -1507.10256053387     IErMin= 1 ErrMin= 1.57D-02
 ErrMax= 1.57D-02  0.00D+00 EMaxC= 1.00D-01 BMatC= 1.02D+00 BMatP= 1.02D+00
 IDIUse=3 WtCom= 8.43D-01 WtEn= 1.57D-01
 Coeff-Com:  0.100D+01
 Coeff-En:   0.100D+01
 Coeff:      0.100D+01
 Gap=     0.276 Goal=   None    Shift=    0.000
 GapD=    0.276 DampG=1.000 DampE=0.500 DampFc=0.5000 IDamp=-1.
 Damping current iteration by 5.00D-01
 RMSDP=3.46D-03 MaxDP=8.26D-01              OVMax= 3.02D-01

 Cycle   2  Pass 0  IDiag  1:
 RMSU=  1.73D-03    CP:  1.01D+00
 E= -1507.44310117284     Delta-E=       -0.340540638971 Rises=F Damp=T
 DIIS: error= 4.31D-03 at cycle   2 NSaved=   2.
 NSaved= 2 IEnMin= 2 EnMin= -1507.44310117284     IErMin= 2 ErrMin= 4.31D-03
 ErrMax= 4.31D-03  0.00D+00 EMaxC= 1.00D-01 BMatC= 9.27D-02 BMatP= 1.02D+00
 IDIUse=3 WtCom= 9.57D-01 WtEn= 4.31D-02
 Coeff-Com:  0.102D-01 0.990D+00
 Coeff-En:   0.708D-01 0.929D+00
 Coeff:      0.128D-01 0.987D+00
 Gap=     0.302 Goal=   None    Shift=    0.000
 RMSDP=1.17D-03 MaxDP=2.68D-01 DE=-3.41D-01 OVMax= 2.00D-01

 Cycle   3  Pass 0  IDiag  1:
 RMSU=  1.02D-03    CP:  9.92D-01  6.68D-01
 E= -1507.81925562932     Delta-E=       -0.376154456487 Rises=F Damp=F
 DIIS: error= 5.08D-03 at cycle   3 NSaved=   3.
 NSaved= 3 IEnMin= 3 EnMin= -1507.81925562932     IErMin= 2 ErrMin= 4.31D-03
 ErrMax= 5.08D-03  0.00D+00 EMaxC= 1.00D-01 BMatC= 5.74D-02 BMatP= 9.27D-02
 IDIUse=3 WtCom= 9.49D-01 WtEn= 5.08D-02
 Coeff-Com: -0.736D-01 0.455D+00 0.619D+00
 Coeff-En:   0.000D+00 0.000D+00 0.100D+01
 Coeff:     -0.698D-01 0.431D+00 0.638D+00
 Gap=     0.203 Goal=   None    Shift=    0.000
 RMSDP=3.75D-04 MaxDP=2.84D-02 DE=-3.76D-01 OVMax= 8.62D-02

 Cycle   4  Pass 0  IDiag  1:
 RMSU=  3.38D-04    CP:  9.93D-01  7.49D-01  9.17D-01
 E= -1507.85814115781     Delta-E=       -0.038885528482 Rises=F Damp=F
 DIIS: error= 2.67D-03 at cycle   4 NSaved=   4.
 NSaved= 4 IEnMin= 4 EnMin= -1507.85814115781     IErMin= 4 ErrMin= 2.67D-03
 ErrMax= 2.67D-03  0.00D+00 EMaxC= 1.00D-01 BMatC= 1.18D-02 BMatP= 5.74D-02
 IDIUse=3 WtCom= 9.73D-01 WtEn= 2.67D-02
 Coeff-Com: -0.341D-01 0.957D-01 0.348D+00 0.590D+00
 Coeff-En:   0.000D+00 0.000D+00 0.143D+00 0.857D+00
 Coeff:     -0.332D-01 0.932D-01 0.343D+00 0.597D+00
 Gap=     0.202 Goal=   None    Shift=    0.000
 RMSDP=1.31D-04 MaxDP=9.86D-03 DE=-3.89D-02 OVMax= 1.84D-02

 Cycle   5  Pass 0  IDiag  1:
 RMSU=  8.61D-05    CP:  9.93D-01  7.46D-01  9.49D-01  7.24D-01
 E= -1507.86717997269     Delta-E=       -0.009038814886 Rises=F Damp=F
 DIIS: error= 4.63D-04 at cycle   5 NSaved=   5.
 NSaved= 5 IEnMin= 5 EnMin= -1507.86717997269     IErMin= 5 ErrMin= 4.63D-04
 ErrMax= 4.63D-04  0.00D+00 EMaxC= 1.00D-01 BMatC= 5.30D-04 BMatP= 1.18D-02
 IDIUse=3 WtCom= 9.95D-01 WtEn= 4.63D-03
 Coeff-Com: -0.966D-02 0.157D-01 0.123D+00 0.274D+00 0.597D+00
 Coeff-En:   0.000D+00 0.000D+00 0.000D+00 0.000D+00 0.100D+01
 Coeff:     -0.961D-02 0.157D-01 0.123D+00 0.273D+00 0.598D+00
 Gap=     0.202 Goal=   None    Shift=    0.000
 RMSDP=4.66D-05 MaxDP=9.23D-03 DE=-9.04D-03 OVMax= 5.33D-03

 Cycle   6  Pass 0  IDiag  1:
 RMSU=  3.47D-05    CP:  9.92D-01  7.31D-01  9.61D-01  7.49D-01  8.81D-01
 E= -1507.86762727148     Delta-E=       -0.000447298789 Rises=F Damp=F
 DIIS: error= 1.68D-04 at cycle   6 NSaved=   6.
 NSaved= 6 IEnMin= 6 EnMin= -1507.86762727148     IErMin= 6 ErrMin= 1.68D-04
 ErrMax= 1.68D-04  0.00D+00 EMaxC= 1.00D-01 BMatC= 6.67D-05 BMatP= 5.30D-04
 IDIUse=3 WtCom= 9.98D-01 WtEn= 1.68D-03
 Coeff-Com:  0.746D-03-0.602D-02 0.101D-01 0.376D-01 0.266D+00 0.692D+00
 Coeff-En:   0.000D+00 0.000D+00 0.000D+00 0.000D+00 0.000D+00 0.100D+01
 Coeff:      0.745D-03-0.601D-02 0.101D-01 0.375D-01 0.265D+00 0.692D+00
 Gap=     0.203 Goal=   None    Shift=    0.000
 RMSDP=2.02D-05 MaxDP=1.28D-03 DE=-4.47D-04 OVMax= 3.60D-03

 Cycle   7  Pass 0  IDiag  1:
 RMSU=  1.71D-05    CP:  9.92D-01  7.29D-01  9.67D-01  7.56D-01  9.77D-01
                    CP:  9.92D-01
 E= -1507.86771474830     Delta-E=       -0.000087476818 Rises=F Damp=F
 DIIS: error= 6.67D-05 at cycle   7 NSaved=   7.
 NSaved= 7 IEnMin= 7 EnMin= -1507.86771474830     IErMin= 7 ErrMin= 6.67D-05
 ErrMax= 6.67D-05  0.00D+00 EMaxC= 1.00D-01 BMatC= 1.20D-05 BMatP= 6.67D-05
 IDIUse=1 WtCom= 1.00D+00 WtEn= 0.00D+00
 Coeff-Com:  0.201D-02-0.549D-02-0.137D-01-0.295D-01 0.127D-01 0.300D+00
 Coeff-Com:  0.734D+00
 Coeff:      0.201D-02-0.549D-02-0.137D-01-0.295D-01 0.127D-01 0.300D+00
 Coeff:      0.734D+00
 Gap=     0.203 Goal=   None    Shift=    0.000
 RMSDP=1.57D-05 MaxDP=3.18D-03 DE=-8.75D-05 OVMax= 2.56D-03

 Cycle   8  Pass 0  IDiag  1:
 RMSU=  1.03D-05    CP:  9.92D-01  7.25D-01  9.69D-01  7.63D-01  1.04D+00
                    CP:  1.18D+00  1.16D+00
 E= -1507.86773055752     Delta-E=       -0.000015809218 Rises=F Damp=F
 DIIS: error= 3.07D-05 at cycle   8 NSaved=   8.
 NSaved= 8 IEnMin= 8 EnMin= -1507.86773055752     IErMin= 8 ErrMin= 3.07D-05
 ErrMax= 3.07D-05  0.00D+00 EMaxC= 1.00D-01 BMatC= 2.57D-06 BMatP= 1.20D-05
 IDIUse=1 WtCom= 1.00D+00 WtEn= 0.00D+00
 Coeff-Com:  0.892D-03-0.158D-02-0.807D-02-0.235D-01-0.471D-01 0.784D-02
 Coeff-Com:  0.353D+00 0.718D+00
 Coeff:      0.892D-03-0.158D-02-0.807D-02-0.235D-01-0.471D-01 0.784D-02
 Coeff:      0.353D+00 0.718D+00
 Gap=     0.203 Goal=   None    Shift=    0.000
 RMSDP=1.30D-05 MaxDP=1.17D-03 DE=-1.58D-05 OVMax= 8.28D-04

 Cycle   9  Pass 0  IDiag  1:
 RMSU=  7.63D-06    CP:  9.92D-01  7.23D-01  9.70D-01  7.63D-01  1.08D+00
                    CP:  1.28D+00  1.51D+00  1.57D+00
 E= -1507.86772597402     Delta-E=        0.000004583493 Rises=F Damp=F
 DIIS: error= 1.74D-05 at cycle   9 NSaved=   9.
 NSaved= 9 IEnMin= 8 EnMin= -1507.86773055752     IErMin= 9 ErrMin= 1.74D-05
 ErrMax= 1.74D-05  0.00D+00 EMaxC= 1.00D-01 BMatC= 3.95D-07 BMatP= 2.57D-06
 IDIUse=1 WtCom= 1.00D+00 WtEn= 0.00D+00
 Coeff-Com:  0.162D-03-0.905D-04-0.147D-02-0.686D-02-0.198D-01-0.273D-01
 Coeff-Com:  0.684D-01 0.301D+00 0.686D+00
 Coeff:      0.162D-03-0.905D-04-0.147D-02-0.686D-02-0.198D-01-0.273D-01
 Coeff:      0.684D-01 0.301D+00 0.686D+00
 Gap=     0.203 Goal=   None    Shift=    0.000
 RMSDP=1.45D-05 MaxDP=1.06D-03 DE= 4.58D-06 OVMax= 2.76D-04

 Cycle  10  Pass 0  IDiag  1:
 RMSU=  4.77D-06    CP:  9.92D-01  7.21D-01  9.71D-01  7.64D-01  1.10D+00
                    CP:  1.36D+00  1.83D+00  2.41D+00  2.05D+00
 E= -1507.86771496261     Delta-E=        0.000011011417 Rises=F Damp=F
 DIIS: error= 2.47D-05 at cycle  10 NSaved=  10.
 NSaved=10 IEnMin= 8 EnMin= -1507.86773055752     IErMin= 9 ErrMin= 1.74D-05
 ErrMax= 2.47D-05  0.00D+00 EMaxC= 1.00D-01 BMatC= 3.29D-07 BMatP= 3.95D-07
 IDIUse=1 WtCom= 1.00D+00 WtEn= 0.00D+00
 Coeff-Com:  0.130D-03-0.668D-04-0.115D-02-0.564D-02-0.164D-01-0.236D-01
 Coeff-Com:  0.544D-01 0.249D+00 0.586D+00 0.158D+00
 Coeff:      0.130D-03-0.668D-04-0.115D-02-0.564D-02-0.164D-01-0.236D-01
 Coeff:      0.544D-01 0.249D+00 0.586D+00 0.158D+00
 Gap=     0.203 Goal=   None    Shift=    0.000
 RMSDP=4.72D-06 MaxDP=3.69D-04 DE= 1.10D-05 OVMax= 1.98D-05

 Initial convergence to 1.0D-05 achieved.  Increase integral accuracy.
 Cycle  11  Pass 1  IDiag  1:
 E= -1507.86766865938     Delta-E=        0.000046303228 Rises=F Damp=F
 DIIS: error= 3.12D-04 at cycle   1 NSaved=   1.
 NSaved= 1 IEnMin= 1 EnMin= -1507.86766865938     IErMin= 1 ErrMin= 3.12D-04
 ErrMax= 3.12D-04  0.00D+00 EMaxC= 1.00D-01 BMatC= 7.94D-05 BMatP= 7.94D-05
 IDIUse=3 WtCom= 9.97D-01 WtEn= 3.12D-03
 Coeff-Com:  0.100D+01
 Coeff-En:   0.100D+01
 Coeff:      0.100D+01
 Gap=     0.203 Goal=   None    Shift=    0.000
 RMSDP=4.72D-06 MaxDP=3.69D-04 DE= 4.63D-05 OVMax= 7.34D-04

 Cycle  12  Pass 1  IDiag  1:
 RMSU=  3.89D-04    CP:  9.97D-01
 E= -1507.86771839038     Delta-E=       -0.000049731006 Rises=F Damp=F
 DIIS: error= 6.90D-06 at cycle   2 NSaved=   2.
 NSaved= 2 IEnMin= 2 EnMin= -1507.86771839038     IErMin= 2 ErrMin= 6.90D-06
 ErrMax= 6.90D-06  0.00D+00 EMaxC= 1.00D-01 BMatC= 9.96D-08 BMatP= 7.94D-05
 IDIUse=1 WtCom= 1.00D+00 WtEn= 0.00D+00
 Coeff-Com: -0.157D-01 0.102D+01
 Coeff:     -0.157D-01 0.102D+01
 Gap=     0.203 Goal=   None    Shift=    0.000
 RMSDP=1.42D-05 MaxDP=1.30D-03 DE=-4.97D-05 OVMax= 2.33D-04

 Cycle  13  Pass 1  IDiag  1:
 RMSU=  5.00D-06    CP:  9.97D-01  1.03D+00
 E= -1507.86771840062     Delta-E=       -0.000000010234 Rises=F Damp=F
 DIIS: error= 8.06D-06 at cycle   3 NSaved=   3.
 NSaved= 3 IEnMin= 3 EnMin= -1507.86771840062     IErMin= 2 ErrMin= 6.90D-06
 ErrMax= 8.06D-06  0.00D+00 EMaxC= 1.00D-01 BMatC= 1.25D-07 BMatP= 9.96D-08
 IDIUse=1 WtCom= 1.00D+00 WtEn= 0.00D+00
 Coeff-Com: -0.968D-02 0.571D+00 0.439D+00
 Coeff:     -0.968D-02 0.571D+00 0.439D+00
 Gap=     0.203 Goal=   None    Shift=    0.000
 RMSDP=5.91D-07 MaxDP=3.36D-05 DE=-1.02D-08 OVMax= 1.22D-04

 Cycle  14  Pass 1  IDiag  1:
 RMSU=  5.58D-07    CP:  9.97D-01  1.03D+00  1.01D+00
 E= -1507.86771851768     Delta-E=       -0.000000117057 Rises=F Damp=F
 DIIS: error= 1.20D-06 at cycle   4 NSaved=   4.
 NSaved= 4 IEnMin= 4 EnMin= -1507.86771851768     IErMin= 4 ErrMin= 1.20D-06
 ErrMax= 1.20D-06  0.00D+00 EMaxC= 1.00D-01 BMatC= 3.88D-09 BMatP= 9.96D-08
 IDIUse=1 WtCom= 1.00D+00 WtEn= 0.00D+00
 Coeff-Com: -0.114D-02 0.551D-01 0.146D+00 0.800D+00
 Coeff:     -0.114D-02 0.551D-01 0.146D+00 0.800D+00
 Gap=     0.203 Goal=   None    Shift=    0.000
 RMSDP=3.32D-07 MaxDP=2.24D-05 DE=-1.17D-07 OVMax= 2.55D-05

 Cycle  15  Pass 1  IDiag  1:
 RMSU=  1.62D-07    CP:  9.97D-01  1.04D+00  1.05D+00  1.02D+00
 E= -1507.86771852087     Delta-E=       -0.000000003195 Rises=F Damp=F
 DIIS: error= 7.52D-07 at cycle   5 NSaved=   5.
 NSaved= 5 IEnMin= 5 EnMin= -1507.86771852087     IErMin= 5 ErrMin= 7.52D-07
 ErrMax= 7.52D-07  0.00D+00 EMaxC= 1.00D-01 BMatC= 1.24D-09 BMatP= 3.88D-09
 IDIUse=1 WtCom= 1.00D+00 WtEn= 0.00D+00
 Coeff-Com:  0.525D-03-0.373D-01 0.270D-01 0.439D+00 0.571D+00
 Coeff:      0.525D-03-0.373D-01 0.270D-01 0.439D+00 0.571D+00
 Gap=     0.203 Goal=   None    Shift=    0.000
 RMSDP=8.78D-08 MaxDP=7.23D-06 DE=-3.20D-09 OVMax= 1.56D-05

 Cycle  16  Pass 1  IDiag  1:
 RMSU=  5.95D-08    CP:  9.97D-01  1.04D+00  1.06D+00  1.04D+00  1.01D+00
 E= -1507.86771852212     Delta-E=       -0.000000001245 Rises=F Damp=F
 DIIS: error= 1.74D-07 at cycle   6 NSaved=   6.
 NSaved= 6 IEnMin= 6 EnMin= -1507.86771852212     IErMin= 6 ErrMin= 1.74D-07
 ErrMax= 1.74D-07  0.00D+00 EMaxC= 1.00D-01 BMatC= 6.83D-11 BMatP= 1.24D-09
 IDIUse=1 WtCom= 1.00D+00 WtEn= 0.00D+00
 Coeff-Com:  0.296D-03-0.189D-01-0.407D-02 0.889D-01 0.219D+00 0.715D+00
 Coeff:      0.296D-03-0.189D-01-0.407D-02 0.889D-01 0.219D+00 0.715D+00
 Gap=     0.203 Goal=   None    Shift=    0.000
 RMSDP=2.54D-08 MaxDP=2.36D-06 DE=-1.25D-09 OVMax= 2.98D-06

 Cycle  17  Pass 1  IDiag  1:
 RMSU=  1.72D-08    CP:  9.97D-01  1.04D+00  1.06D+00  1.05D+00  1.11D+00
                    CP:  1.05D+00
 E= -1507.86771852226     Delta-E=       -0.000000000141 Rises=F Damp=F
 DIIS: error= 6.57D-08 at cycle   7 NSaved=   7.
 NSaved= 7 IEnMin= 7 EnMin= -1507.86771852226     IErMin= 7 ErrMin= 6.57D-08
 ErrMax= 6.57D-08  0.00D+00 EMaxC= 1.00D-01 BMatC= 1.54D-11 BMatP= 6.83D-11
 IDIUse=1 WtCom= 1.00D+00 WtEn= 0.00D+00
 Coeff-Com:  0.305D-05 0.824D-03-0.970D-02-0.709D-01-0.269D-01 0.338D+00
 Coeff-Com:  0.769D+00
 Coeff:      0.305D-05 0.824D-03-0.970D-02-0.709D-01-0.269D-01 0.338D+00
 Coeff:      0.769D+00
 Gap=     0.203 Goal=   None    Shift=    0.000
 RMSDP=1.37D-08 MaxDP=1.38D-06 DE=-1.41D-10 OVMax= 3.12D-06

 Cycle  18  Pass 1  IDiag  1:
 RMSU=  9.58D-09    CP:  9.97D-01  1.04D+00  1.06D+00  1.05D+00  1.15D+00
                    CP:  1.15D+00  1.07D+00
 E= -1507.86771852229     Delta-E=       -0.000000000037 Rises=F Damp=F
 DIIS: error= 3.23D-08 at cycle   8 NSaved=   8.
 NSaved= 8 IEnMin= 8 EnMin= -1507.86771852229     IErMin= 8 ErrMin= 3.23D-08
 ErrMax= 3.23D-08  0.00D+00 EMaxC= 1.00D-01 BMatC= 2.48D-12 BMatP= 1.54D-11
 IDIUse=1 WtCom= 1.00D+00 WtEn= 0.00D+00
 Coeff-Com: -0.354D-04 0.271D-02-0.414D-02-0.425D-01-0.361D-01 0.538D-01
 Coeff-Com:  0.360D+00 0.666D+00
 Coeff:     -0.354D-04 0.271D-02-0.414D-02-0.425D-01-0.361D-01 0.538D-01
 Coeff:      0.360D+00 0.666D+00
 Gap=     0.203 Goal=   None    Shift=    0.000
 RMSDP=4.18D-09 MaxDP=4.55D-07 DE=-3.73D-11 OVMax= 7.17D-07

 SCF Done:  E(RM062X) =  -1507.86771852     A.U. after   18 cycles
            NFock= 18  Conv=0.42D-08     -V/T= 2.0038
 KE= 1.502118559061D+03 PE=-8.403630217617D+03 EE= 2.961229259972D+03
 Leave Link  502 at Sun Apr  9 10:39:07 2023, MaxMem=  2684354560 cpu:           17920.8 elap:            1120.4
 (Enter /opt/gaussian/g16/l601.exe)
 Copying SCF densities to generalized density rwf, IOpCl= 0 IROHF=0.

 **********************************************************************

            Population analysis using the SCF density.

 **********************************************************************

 Alpha  occ. eigenvalues --  -89.89869 -19.64454 -19.63666 -19.62230 -19.60512
 Alpha  occ. eigenvalues --  -19.60500 -14.80380 -14.76762 -10.65241 -10.63690
 Alpha  occ. eigenvalues --  -10.63395 -10.60309 -10.60274 -10.60151 -10.59336
 Alpha  occ. eigenvalues --  -10.57845 -10.56010 -10.55548 -10.54650 -10.54578
 Alpha  occ. eigenvalues --  -10.54022 -10.53735 -10.52914 -10.52842  -8.25857
 Alpha  occ. eigenvalues --   -6.17795  -6.17568  -6.17375  -1.19298  -1.17401
 Alpha  occ. eigenvalues --   -1.16335  -1.15103  -1.14220  -1.09177  -1.00633
 Alpha  occ. eigenvalues --   -0.93103  -0.91219  -0.88557  -0.88350  -0.88249
 Alpha  occ. eigenvalues --   -0.86116  -0.81247  -0.78992  -0.75444  -0.74557
 Alpha  occ. eigenvalues --   -0.73481  -0.70442  -0.68301  -0.66614  -0.66009
 Alpha  occ. eigenvalues --   -0.64037  -0.62715  -0.60580  -0.59675  -0.59400
 Alpha  occ. eigenvalues --   -0.58171  -0.57045  -0.55675  -0.54556  -0.54406
 Alpha  occ. eigenvalues --   -0.53703  -0.52965  -0.52668  -0.51571  -0.51108
 Alpha  occ. eigenvalues --   -0.50838  -0.49552  -0.49482  -0.48916  -0.48644
 Alpha  occ. eigenvalues --   -0.48361  -0.48114  -0.46427  -0.46087  -0.45932
 Alpha  occ. eigenvalues --   -0.45504  -0.44656  -0.44080  -0.43914  -0.43151
 Alpha  occ. eigenvalues --   -0.42794  -0.42573  -0.41715  -0.39392  -0.38605
 Alpha  occ. eigenvalues --   -0.36574  -0.36452  -0.35400  -0.34630  -0.33726
 Alpha  occ. eigenvalues --   -0.32690  -0.31932  -0.31152  -0.29302  -0.23556
 Alpha virt. eigenvalues --   -0.03256  -0.00067   0.04726   0.05204   0.06002
 Alpha virt. eigenvalues --    0.06265   0.06700   0.07889   0.08279   0.08751
 Alpha virt. eigenvalues --    0.09094   0.09682   0.10236   0.11071   0.11194
 Alpha virt. eigenvalues --    0.11915   0.12335   0.12812   0.13149   0.13748
 Alpha virt. eigenvalues --    0.13797   0.14202   0.14513   0.14986   0.15134
 Alpha virt. eigenvalues --    0.15577   0.16258   0.16588   0.17378   0.18067
 Alpha virt. eigenvalues --    0.18519   0.18978   0.19277   0.19794   0.19980
 Alpha virt. eigenvalues --    0.20709   0.21077   0.21629   0.21683   0.22126
 Alpha virt. eigenvalues --    0.22690   0.23332   0.23661   0.24552   0.24766
 Alpha virt. eigenvalues --    0.24978   0.25512   0.25881   0.26346   0.26668
 Alpha virt. eigenvalues --    0.27163   0.28133   0.28325   0.28423   0.28659
 Alpha virt. eigenvalues --    0.29126   0.29666   0.30244   0.30627   0.31515
 Alpha virt. eigenvalues --    0.31748   0.31993   0.32564   0.32949   0.33224
 Alpha virt. eigenvalues --    0.33403   0.34421   0.34627   0.35269   0.35995
 Alpha virt. eigenvalues --    0.36415   0.36875   0.36971   0.37831   0.37984
 Alpha virt. eigenvalues --    0.38726   0.39608   0.39728   0.40013   0.40304
 Alpha virt. eigenvalues --    0.40778   0.40957   0.41696   0.41916   0.42170
 Alpha virt. eigenvalues --    0.42557   0.42678   0.43509   0.43691   0.43765
 Alpha virt. eigenvalues --    0.44518   0.44896   0.45249   0.45455   0.45598
 Alpha virt. eigenvalues --    0.46131   0.46416   0.46833   0.47108   0.47478
 Alpha virt. eigenvalues --    0.47936   0.48389   0.48892   0.49225   0.49582
 Alpha virt. eigenvalues --    0.49794   0.50177   0.50232   0.50362   0.51051
 Alpha virt. eigenvalues --    0.51243   0.51390   0.51670   0.52538   0.52722
 Alpha virt. eigenvalues --    0.52952   0.53208   0.53621   0.53781   0.54656
 Alpha virt. eigenvalues --    0.54975   0.55388   0.55855   0.56048   0.57003
 Alpha virt. eigenvalues --    0.57580   0.58257   0.58641   0.59010   0.59444
 Alpha virt. eigenvalues --    0.59835   0.60306   0.60709   0.61674   0.62512
 Alpha virt. eigenvalues --    0.62611   0.62951   0.63326   0.64028   0.64834
 Alpha virt. eigenvalues --    0.64981   0.65917   0.67117   0.67422   0.67959
 Alpha virt. eigenvalues --    0.68433   0.69200   0.69283   0.69568   0.70905
 Alpha virt. eigenvalues --    0.71328   0.72277   0.72698   0.73356   0.73997
 Alpha virt. eigenvalues --    0.74434   0.74729   0.75352   0.77643   0.77790
 Alpha virt. eigenvalues --    0.78469   0.78691   0.80300   0.80824   0.80998
 Alpha virt. eigenvalues --    0.81278   0.82308   0.82803   0.83158   0.83661
 Alpha virt. eigenvalues --    0.85026   0.85215   0.85942   0.86687   0.87225
 Alpha virt. eigenvalues --    0.87683   0.88259   0.88332   0.89841   0.89950
 Alpha virt. eigenvalues --    0.91146   0.91311   0.92268   0.92440   0.93564
 Alpha virt. eigenvalues --    0.94151   0.94615   0.95654   0.96250   0.97091
 Alpha virt. eigenvalues --    0.97938   0.98135   0.98292   0.98946   0.99531
 Alpha virt. eigenvalues --    0.99899   1.00418   1.02486   1.02903   1.03625
 Alpha virt. eigenvalues --    1.03885   1.04869   1.05181   1.05452   1.05932
 Alpha virt. eigenvalues --    1.06368   1.07827   1.08418   1.09089   1.09739
 Alpha virt. eigenvalues --    1.10053   1.10920   1.12148   1.12554   1.12611
 Alpha virt. eigenvalues --    1.13208   1.13841   1.14888   1.15495   1.16194
 Alpha virt. eigenvalues --    1.16352   1.17446   1.17862   1.19055   1.19367
 Alpha virt. eigenvalues --    1.21259   1.21657   1.21994   1.22331   1.23234
 Alpha virt. eigenvalues --    1.23984   1.25975   1.26664   1.27036   1.27453
 Alpha virt. eigenvalues --    1.28533   1.28998   1.30400   1.30665   1.31173
 Alpha virt. eigenvalues --    1.32491   1.33801   1.34097   1.34455   1.35879
 Alpha virt. eigenvalues --    1.35983   1.37580   1.38087   1.39524   1.40019
 Alpha virt. eigenvalues --    1.40609   1.41088   1.41868   1.42285   1.43761
 Alpha virt. eigenvalues --    1.44752   1.45562   1.46568   1.49134   1.49830
 Alpha virt. eigenvalues --    1.50292   1.51468   1.52309   1.52528   1.53206
 Alpha virt. eigenvalues --    1.53821   1.55132   1.55273   1.55716   1.56264
 Alpha virt. eigenvalues --    1.56474   1.56985   1.57031   1.57472   1.57757
 Alpha virt. eigenvalues --    1.58131   1.58839   1.59476   1.60117   1.60262
 Alpha virt. eigenvalues --    1.60667   1.61375   1.61584   1.61997   1.62832
 Alpha virt. eigenvalues --    1.62973   1.63271   1.63674   1.64697   1.65395
 Alpha virt. eigenvalues --    1.66245   1.66403   1.66864   1.67147   1.68805
 Alpha virt. eigenvalues --    1.69240   1.70055   1.70212   1.70670   1.71122
 Alpha virt. eigenvalues --    1.72194   1.73062   1.73360   1.73943   1.74536
 Alpha virt. eigenvalues --    1.75168   1.76615   1.77307   1.77962   1.78265
 Alpha virt. eigenvalues --    1.78575   1.79654   1.80005   1.80851   1.82032
 Alpha virt. eigenvalues --    1.82449   1.83113   1.83267   1.84332   1.84723
 Alpha virt. eigenvalues --    1.85453   1.86348   1.86756   1.87938   1.88838
 Alpha virt. eigenvalues --    1.89139   1.89330   1.89875   1.90463   1.91367
 Alpha virt. eigenvalues --    1.91635   1.92805   1.93558   1.94358   1.94616
 Alpha virt. eigenvalues --    1.94933   1.95589   1.96608   1.97649   1.97787
 Alpha virt. eigenvalues --    1.98681   1.98923   1.99696   2.00372   2.01335
 Alpha virt. eigenvalues --    2.02081   2.02541   2.03749   2.04956   2.05512
 Alpha virt. eigenvalues --    2.06065   2.06642   2.07170   2.08450   2.08556
 Alpha virt. eigenvalues --    2.09580   2.09831   2.10673   2.11081   2.12052
 Alpha virt. eigenvalues --    2.12564   2.13519   2.13832   2.14191   2.15484
 Alpha virt. eigenvalues --    2.15827   2.16310   2.17217   2.19174   2.19384
 Alpha virt. eigenvalues --    2.20082   2.20480   2.20666   2.21722   2.22578
 Alpha virt. eigenvalues --    2.23513   2.24734   2.25386   2.25722   2.26502
 Alpha virt. eigenvalues --    2.27003   2.27188   2.28618   2.29368   2.29413
 Alpha virt. eigenvalues --    2.29682   2.30311   2.31036   2.31432   2.32137
 Alpha virt. eigenvalues --    2.33084   2.33647   2.33719   2.34818   2.35441
 Alpha virt. eigenvalues --    2.35946   2.36986   2.38451   2.39113   2.39356
 Alpha virt. eigenvalues --    2.40466   2.42195   2.42610   2.43233   2.44011
 Alpha virt. eigenvalues --    2.45104   2.45599   2.46256   2.46768   2.47543
 Alpha virt. eigenvalues --    2.48248   2.48966   2.49920   2.50152   2.51361
 Alpha virt. eigenvalues --    2.51518   2.54065   2.54414   2.54828   2.55776
 Alpha virt. eigenvalues --    2.56500   2.56745   2.57288   2.57729   2.58686
 Alpha virt. eigenvalues --    2.59292   2.59323   2.60011   2.60771   2.61819
 Alpha virt. eigenvalues --    2.62356   2.62820   2.63801   2.64333   2.64895
 Alpha virt. eigenvalues --    2.65479   2.66687   2.66823   2.67954   2.68322
 Alpha virt. eigenvalues --    2.68879   2.69403   2.70196   2.70593   2.71185
 Alpha virt. eigenvalues --    2.72191   2.72460   2.73111   2.73446   2.74191
 Alpha virt. eigenvalues --    2.74872   2.75332   2.77144   2.78258   2.78680
 Alpha virt. eigenvalues --    2.79250   2.79981   2.80088   2.80985   2.81685
 Alpha virt. eigenvalues --    2.82026   2.82763   2.83810   2.83931   2.84787
 Alpha virt. eigenvalues --    2.85677   2.86296   2.87713   2.88047   2.88562
 Alpha virt. eigenvalues --    2.89507   2.90457   2.91792   2.92314   2.94059
 Alpha virt. eigenvalues --    2.94234   2.94311   2.95202   2.96067   2.96444
 Alpha virt. eigenvalues --    2.97565   2.98287   2.98692   2.99016   3.00249
 Alpha virt. eigenvalues --    3.01099   3.01902   3.01920   3.02637   3.02898
 Alpha virt. eigenvalues --    3.03967   3.04174   3.05930   3.06666   3.07435
 Alpha virt. eigenvalues --    3.07902   3.08658   3.09014   3.09615   3.09990
 Alpha virt. eigenvalues --    3.10644   3.11180   3.12251   3.12780   3.13516
 Alpha virt. eigenvalues --    3.13826   3.14707   3.15013   3.15972   3.16650
 Alpha virt. eigenvalues --    3.16951   3.17670   3.18667   3.19191   3.19598
 Alpha virt. eigenvalues --    3.20088   3.20451   3.20691   3.22394   3.23421
 Alpha virt. eigenvalues --    3.23458   3.23795   3.24661   3.25135   3.25423
 Alpha virt. eigenvalues --    3.25565   3.26780   3.27159   3.27724   3.28021
 Alpha virt. eigenvalues --    3.29436   3.29604   3.30553   3.31167   3.31748
 Alpha virt. eigenvalues --    3.32137   3.32426   3.33690   3.34015   3.34323
 Alpha virt. eigenvalues --    3.34884   3.35514   3.36266   3.36822   3.36996
 Alpha virt. eigenvalues --    3.38110   3.38275   3.38952   3.39110   3.39777
 Alpha virt. eigenvalues --    3.40163   3.41058   3.41532   3.42446   3.42680
 Alpha virt. eigenvalues --    3.42808   3.43497   3.44397   3.44779   3.46046
 Alpha virt. eigenvalues --    3.46901   3.46963   3.47563   3.48579   3.49240
 Alpha virt. eigenvalues --    3.49577   3.50212   3.50674   3.51183   3.52419
 Alpha virt. eigenvalues --    3.54024   3.54225   3.55099   3.56363   3.56619
 Alpha virt. eigenvalues --    3.57762   3.58240   3.59095   3.59592   3.60814
 Alpha virt. eigenvalues --    3.61278   3.62209   3.63238   3.64208   3.65084
 Alpha virt. eigenvalues --    3.66418   3.67448   3.68758   3.69584   3.70113
 Alpha virt. eigenvalues --    3.70716   3.71411   3.71681   3.73491   3.75270
 Alpha virt. eigenvalues --    3.75545   3.76397   3.76924   3.77573   3.78506
 Alpha virt. eigenvalues --    3.79991   3.81493   3.81920   3.82227   3.83151
 Alpha virt. eigenvalues --    3.83703   3.85516   3.86738   3.88954   3.90409
 Alpha virt. eigenvalues --    3.91016   3.91284   3.91942   3.92647   3.93749
 Alpha virt. eigenvalues --    3.94534   3.96384   3.97014   3.98842   3.99600
 Alpha virt. eigenvalues --    4.01106   4.01391   4.02898   4.04641   4.06468
 Alpha virt. eigenvalues --    4.07834   4.09437   4.10454   4.10905   4.11185
 Alpha virt. eigenvalues --    4.11898   4.12879   4.14515   4.14683   4.15818
 Alpha virt. eigenvalues --    4.19074   4.21173   4.22602   4.23417   4.24027
 Alpha virt. eigenvalues --    4.26259   4.27584   4.28041   4.28808   4.29529
 Alpha virt. eigenvalues --    4.30730   4.32612   4.33032   4.35766   4.39747
 Alpha virt. eigenvalues --    4.40323   4.40683   4.41916   4.42360   4.43099
 Alpha virt. eigenvalues --    4.45630   4.46455   4.47551   4.49652   4.49928
 Alpha virt. eigenvalues --    4.51013   4.51399   4.52462   4.55002   4.55947
 Alpha virt. eigenvalues --    4.59013   4.63921   4.65687   4.67538   4.68847
 Alpha virt. eigenvalues --    4.70786   4.73155   4.74807   4.75394   4.76761
 Alpha virt. eigenvalues --    4.78103   4.78458   4.81232   4.82900   4.84017
 Alpha virt. eigenvalues --    4.84916   4.85900   4.88010   4.90309   4.91473
 Alpha virt. eigenvalues --    4.91966   4.92959   4.94516   4.95229   4.95832
 Alpha virt. eigenvalues --    4.97997   4.98779   5.00472   5.01841   5.03003
 Alpha virt. eigenvalues --    5.08247   5.09755   5.12968   5.15447   5.19538
 Alpha virt. eigenvalues --    5.21301   5.23010   5.24347   5.24912   5.26720
 Alpha virt. eigenvalues --    5.27506   5.29660   5.30820   5.31481   5.36535
 Alpha virt. eigenvalues --    5.39843   5.42674   5.45279   5.45433   5.47545
 Alpha virt. eigenvalues --    5.49588   5.50358   5.52576   5.55827   5.57103
 Alpha virt. eigenvalues --    5.62665   5.63035   5.72533   5.75522   5.76702
 Alpha virt. eigenvalues --    5.78512   5.79148   5.82407   5.82774   5.84402
 Alpha virt. eigenvalues --    5.85544   5.86673   5.88214   5.91472   5.93967
 Alpha virt. eigenvalues --    5.97033   5.99137   6.06243   6.18903   6.20261
 Alpha virt. eigenvalues --    6.23625   6.26015   6.27641   6.31422   6.36800
 Alpha virt. eigenvalues --    6.39927   6.43320   6.47031   6.51351   6.51567
 Alpha virt. eigenvalues --    6.56871   6.57279   6.69663   6.71410   6.73274
 Alpha virt. eigenvalues --    6.76064   6.79677   6.84167   6.85053   6.86299
 Alpha virt. eigenvalues --    6.86457   6.90519   6.99437   7.01814   7.06230
 Alpha virt. eigenvalues --    7.08330   7.09413   7.09608   7.16860   7.24550
 Alpha virt. eigenvalues --    7.25191   7.32243   9.00484   9.41652   9.54570
 Alpha virt. eigenvalues --   20.03311  22.32200  22.45350  22.54075  22.55675
 Alpha virt. eigenvalues --   22.61995  22.69114  22.71694  22.71887  22.80938
 Alpha virt. eigenvalues --   22.86004  22.92799  22.95630  23.07190  23.12605
 Alpha virt. eigenvalues --   23.21213  23.34151  32.10289  33.17266  44.13189
 Alpha virt. eigenvalues --   44.17211  44.22092  44.25875  44.50625
          Condensed to atoms (all electrons):
               1          2          3          4          5          6
     1  C    5.110527   0.423886   0.417066  -0.006962  -0.000016  -0.000381
     2  H    0.423886   0.509774  -0.022995  -0.001095   0.000235  -0.000003
     3  H    0.417066  -0.022995   0.541024   0.001815   0.000002  -0.000007
     4  C   -0.006962  -0.001095   0.001815   5.364947   0.486403   0.265465
     5  H   -0.000016   0.000235   0.000002   0.486403   0.539943  -0.032003
     6  O   -0.000381  -0.000003  -0.000007   0.265465  -0.032003   8.037922
     7  H   -0.000062  -0.000004   0.000005  -0.037309  -0.013896   0.285971
     8  C    0.010449   0.013036  -0.009985  -0.004647  -0.058541  -0.051863
     9  H    0.009840   0.000119  -0.002139  -0.100694   0.001661   0.003962
    10  O    0.007101  -0.000373   0.000269  -0.036868   0.001456  -0.008536
    11  H   -0.001322  -0.000128   0.000473   0.015154  -0.000755  -0.000479
    12  C   -0.004115  -0.000170   0.000654   0.058322  -0.089867  -0.031834
    13  H   -0.000253   0.000016   0.000125  -0.089504   0.006769   0.009653
    14  C    0.171393  -0.049859  -0.042464   0.106136   0.012574   0.006722
    15  H   -0.072997  -0.007041  -0.002953  -0.008005   0.000024   0.000106
    16  O   -0.031348   0.000904   0.005227  -0.066100   0.001329   0.005258
    17  N    0.000054  -0.000052  -0.000033   0.006581  -0.011929  -0.002094
    18  C   -0.000581   0.000025   0.000005  -0.007564   0.000829   0.002722
    19  H   -0.000168  -0.000064   0.000043  -0.012477  -0.001869   0.000955
    20  C    0.000014   0.000001  -0.000002   0.007521   0.004746  -0.001167
    21  H    0.000004   0.000000  -0.000000   0.000061   0.000066  -0.000015
    22  C   -0.000009  -0.000000   0.000000   0.000186  -0.000120  -0.000025
    23  H   -0.000000   0.000000  -0.000000   0.000021   0.000003   0.000000
    24  H    0.000000  -0.000000  -0.000000  -0.000402  -0.000129   0.000009
    25  C   -0.000059  -0.000004   0.000001  -0.005787  -0.000165   0.000062
    26  C   -0.000259   0.000037  -0.000005   0.015275  -0.000959  -0.005755
    27  H   -0.000015   0.000001  -0.000000   0.000661  -0.000090  -0.000135
    28  C    0.000000  -0.000000  -0.000000   0.000000   0.000003  -0.000006
    29  O   -0.000000   0.000000  -0.000000   0.000005   0.000000  -0.000000
    30  N   -0.000000   0.000000   0.000000   0.000000   0.000000  -0.000000
    31  H   -0.000000   0.000000   0.000000   0.000000   0.000000  -0.000000
    32  H    0.000000   0.000000  -0.000000   0.000000   0.000000   0.000000
    33  C    0.000001  -0.000000   0.000000  -0.000159  -0.000356  -0.015150
    34  C    0.000001  -0.000000  -0.000000   0.000877   0.000298   0.008878
    35  C    0.000000   0.000000  -0.000000  -0.000119   0.000139   0.000600
    36  C   -0.000000   0.000000   0.000000   0.000003   0.000001   0.000000
    37  C   -0.000000   0.000000   0.000000   0.000080   0.000013  -0.000035
    38  O   -0.000000   0.000000  -0.000000   0.001303   0.000000  -0.019641
    39  S   -0.000000  -0.000000  -0.000000   0.000108   0.000005   0.000520
    40  H   -0.000000   0.000000  -0.000000   0.000147   0.000027   0.000137
    41  H   -0.000003   0.000000  -0.000000  -0.000252   0.000481   0.011007
    42  H    0.000000   0.000000  -0.000000   0.000000   0.000000  -0.000000
    43  H    0.000000  -0.000000  -0.000000  -0.000000  -0.000000  -0.000000
    44  H    0.000000  -0.000000  -0.000000  -0.000000  -0.000000   0.000000
    45  H   -0.000000   0.000000   0.000000   0.000013   0.000004   0.000013
    46  H    0.000000  -0.000000  -0.000000   0.000000   0.000001   0.000034
    47  H    0.378840  -0.022126  -0.026022   0.000673  -0.000237   0.000025
    48  H    0.000000   0.000000  -0.000000  -0.000010   0.000002   0.000301
               7          8          9         10         11         12
     1  C   -0.000062   0.010449   0.009840   0.007101  -0.001322  -0.004115
     2  H   -0.000004   0.013036   0.000119  -0.000373  -0.000128  -0.000170
     3  H    0.000005  -0.009985  -0.002139   0.000269   0.000473   0.000654
     4  C   -0.037309  -0.004647  -0.100694  -0.036868   0.015154   0.058322
     5  H   -0.013896  -0.058541   0.001661   0.001456  -0.000755  -0.089867
     6  O    0.285971  -0.051863   0.003962  -0.008536  -0.000479  -0.031834
     7  H    0.380373   0.011845  -0.000422  -0.000581   0.000195   0.004418
     8  C    0.011845   5.434570   0.513816   0.296095  -0.047757  -0.033149
     9  H   -0.000422   0.513816   0.582441  -0.054630  -0.007322   0.012218
    10  O   -0.000581   0.296095  -0.054630   7.994763   0.295219  -0.027970
    11  H    0.000195  -0.047757  -0.007322   0.295219   0.431669  -0.001267
    12  C    0.004418  -0.033149   0.012218  -0.027970  -0.001267   5.476321
    13  H   -0.001383   0.015524   0.002640   0.015384  -0.001139   0.437643
    14  C   -0.001006   0.044698  -0.125385  -0.059142   0.002635  -0.086393
    15  H    0.000076  -0.042678   0.010849  -0.001048   0.003356  -0.000863
    16  O    0.000120  -0.031912   0.005399   0.008681   0.000001   0.255869
    17  N    0.004713   0.000730  -0.000735  -0.000085   0.000016   0.229052
    18  C    0.000422  -0.003307  -0.000194  -0.000215   0.000009  -0.086101
    19  H    0.000354   0.001305  -0.000007  -0.000002   0.000003   0.014285
    20  C   -0.001769  -0.000964   0.000027   0.000005  -0.000001   0.009178
    21  H   -0.000019  -0.000000   0.000000   0.000000  -0.000000   0.000159
    22  C    0.000325  -0.000017  -0.000003  -0.000002   0.000000  -0.012498
    23  H   -0.000007   0.000000   0.000000   0.000000  -0.000000  -0.000044
    24  H    0.000409   0.000025  -0.000000   0.000000   0.000000   0.002201
    25  C    0.000510  -0.000528  -0.000004  -0.000030  -0.000000  -0.012167
    26  C   -0.000528  -0.004118  -0.000081  -0.000533  -0.000036  -0.068034
    27  H    0.000063  -0.000047  -0.000007  -0.000111   0.000004  -0.002727
    28  C    0.000024   0.000004   0.000000   0.000000  -0.000000   0.000025
    29  O    0.000003   0.000000   0.000000  -0.000000  -0.000000   0.000392
    30  N    0.000000  -0.000000  -0.000000  -0.000000  -0.000000  -0.000000
    31  H   -0.000000  -0.000000   0.000000  -0.000000  -0.000000  -0.000006
    32  H   -0.000000  -0.000000  -0.000000   0.000000  -0.000000  -0.000010
    33  C    0.004150   0.000553   0.000011  -0.000683   0.000045   0.000073
    34  C   -0.006188   0.000003  -0.000017   0.000012   0.000001  -0.000403
    35  C    0.000553  -0.000081   0.000000   0.000000  -0.000000  -0.000454
    36  C   -0.000004  -0.000000  -0.000000  -0.000000  -0.000000  -0.000017
    37  C   -0.000384  -0.000001   0.000000   0.000000  -0.000000  -0.000708
    38  O    0.028539  -0.000150   0.000001  -0.000001  -0.000000  -0.000117
    39  S   -0.001348  -0.000029   0.000000   0.000002  -0.000001   0.000010
    40  H   -0.001149  -0.000026   0.000000   0.000013  -0.000001   0.000008
    41  H   -0.009530  -0.000976   0.000009   0.002105  -0.000144  -0.000156
    42  H    0.000000   0.000000  -0.000000   0.000000  -0.000000   0.000001
    43  H    0.000001   0.000000  -0.000000   0.000000   0.000000   0.000002
    44  H   -0.000000   0.000000  -0.000000   0.000000   0.000000   0.000000
    45  H   -0.000068  -0.000000   0.000000  -0.000000  -0.000000  -0.000058
    46  H   -0.000110   0.000000  -0.000000  -0.000000   0.000000   0.000112
    47  H    0.000024  -0.013074   0.000689   0.000203   0.000154  -0.001022
    48  H    0.000250  -0.000017   0.000001   0.000004  -0.000002   0.000005
              13         14         15         16         17         18
     1  C   -0.000253   0.171393  -0.072997  -0.031348   0.000054  -0.000581
     2  H    0.000016  -0.049859  -0.007041   0.000904  -0.000052   0.000025
     3  H    0.000125  -0.042464  -0.002953   0.005227  -0.000033   0.000005
     4  C   -0.089504   0.106136  -0.008005  -0.066100   0.006581  -0.007564
     5  H    0.006769   0.012574   0.000024   0.001329  -0.011929   0.000829
     6  O    0.009653   0.006722   0.000106   0.005258  -0.002094   0.002722
     7  H   -0.001383  -0.001006   0.000076   0.000120   0.004713   0.000422
     8  C    0.015524   0.044698  -0.042678  -0.031912   0.000730  -0.003307
     9  H    0.002640  -0.125385   0.010849   0.005399  -0.000735  -0.000194
    10  O    0.015384  -0.059142  -0.001048   0.008681  -0.000085  -0.000215
    11  H   -0.001139   0.002635   0.003356   0.000001   0.000016   0.000009
    12  C    0.437643  -0.086393  -0.000863   0.255869   0.229052  -0.086101
    13  H    0.518131  -0.011390   0.006424  -0.032738  -0.054731   0.014138
    14  C   -0.011390   5.387511   0.417351   0.197213   0.013169  -0.000685
    15  H    0.006424   0.417351   0.612355  -0.036919  -0.001168   0.000266
    16  O   -0.032738   0.197213  -0.036919   8.068388  -0.078042   0.012415
    17  N   -0.054731   0.013169  -0.001168  -0.078042   6.497042   0.307809
    18  C    0.014138  -0.000685   0.000266   0.012415   0.307809   5.059118
    19  H    0.001078  -0.002533   0.000144   0.009574  -0.047007   0.410358
    20  C   -0.000322   0.000457   0.000002  -0.000953  -0.080842   0.520774
    21  H    0.000005  -0.000002  -0.000000  -0.000063   0.004457  -0.032088
    22  C    0.000253  -0.000037   0.000001   0.000570  -0.013868  -0.018458
    23  H   -0.000007  -0.000000   0.000000  -0.000003  -0.001604   0.003989
    24  H   -0.000054   0.000003   0.000000   0.000037   0.017630   0.009830
    25  C    0.008328   0.000252   0.000023  -0.001793  -0.066245   0.047197
    26  C   -0.018872   0.000088  -0.000459   0.001766   0.336913  -0.181545
    27  H   -0.000808  -0.000022  -0.000021   0.000734  -0.035294   0.007886
    28  C    0.000060  -0.000005  -0.000000   0.000006   0.004604   0.003110
    29  O   -0.000038  -0.000000   0.000000  -0.000001  -0.000179   0.000387
    30  N   -0.000000   0.000000  -0.000000  -0.000000  -0.000410  -0.000070
    31  H    0.000000  -0.000000   0.000000   0.000000   0.000017  -0.000010
    32  H    0.000001   0.000000  -0.000000   0.000000   0.000038   0.000269
    33  C   -0.000382  -0.000066   0.000000   0.000001   0.000167  -0.000018
    34  C    0.000439   0.000055  -0.000000   0.000060   0.004582  -0.001010
    35  C   -0.000121  -0.000005  -0.000000  -0.000027  -0.011984   0.003760
    36  C    0.000002   0.000000  -0.000000  -0.000000  -0.000296   0.000563
    37  C    0.000018  -0.000002  -0.000000  -0.000002  -0.002504   0.001020
    38  O   -0.000269   0.000013  -0.000000   0.000004   0.002134   0.002621
    39  S    0.001128   0.000010   0.000000   0.000003   0.000400  -0.000109
[...]
      4        6           0.004231247   -0.005202027   -0.004858330
      5        1           0.004553307    0.004949050   -0.000159057
      6        8           0.001276596   -0.004436612   -0.010237937
      7        1          -0.006094449    0.002324660    0.002023169
      8        6          -0.011700304   -0.006080229   -0.004995523
      9        1           0.001063197    0.005305086   -0.002589781
     10        8           0.006987075   -0.001256946   -0.000931806
     11        1          -0.001858460    0.001774500    0.000371033
     12        6          -0.005984980    0.003445379    0.003284794
     13        1          -0.003201686   -0.001510958   -0.002845233
     14        6           0.000554049    0.001463717    0.006447671
     15        1          -0.002563610    0.002128665    0.001546180
     16        8          -0.001856509   -0.000969847    0.007400087
     17        7           0.022712234    0.006602502    0.005971108
     18        6          -0.002657827   -0.008476544    0.001949970
     19        1           0.003490369    0.000398699    0.000542210
     20        6          -0.004348132   -0.003587843   -0.000458635
     21        1          -0.000866063   -0.003720968    0.000950972
     22        6          -0.018271233    0.019389710    0.023483739
     23        1          -0.001293941    0.000481928   -0.002703333
     24        1           0.014612054   -0.031813062   -0.036562601
     25        6          -0.011653988    0.007165395   -0.006287498
     26        6           0.004987759   -0.004580416    0.002611636
     27        1           0.003957569    0.000806168    0.001259093
     28        6          -0.014330623   -0.009077469    0.000168386
     29        8           0.002927184    0.006855345   -0.005055694
     30        7           0.026165542   -0.000368122   -0.004861048
     31        1          -0.002606105   -0.005660388    0.008144715
     32        1          -0.002857514    0.006301268    0.007386819
     33        6          -0.002035891   -0.010103344   -0.000348729
     34        6          -0.003077601   -0.029619908    0.013790017
     35        6          -0.001228908    0.001130345   -0.011414970
     36        6          -0.001106991    0.000167623   -0.004822111
     37        6          -0.009250839    0.016350952    0.028575095
     38        8           0.000338507    0.012870202   -0.010163696
     39       16           0.013782084    0.014341952    0.007930713
     40        1           0.001239458    0.000619110    0.000228745
     41        1           0.001091453    0.000892337    0.002289674
     42        1          -0.001982562   -0.001421190   -0.001859979
     43        1           0.000835103    0.003647578   -0.002271561
     44        1          -0.001823142    0.001024057    0.000548716
     45        1           0.005197143   -0.005944826   -0.003977033
     46        1           0.000218515    0.004175811   -0.002318151
     47        1           0.000589605   -0.001850367   -0.000510424
     48        1          -0.003031114    0.004986134   -0.005423721
 -------------------------------------------------------------------
 Cartesian Forces:  Max     0.036562601 RMS     0.008598228
 Leave Link  716 at Sun Apr  9 10:47:15 2023, MaxMem=  2684354560 cpu:               0.9 elap:               0.1
 (Enter /opt/gaussian/g16/l103.exe)

 GradGradGradGradGradGradGradGradGradGradGradGradGradGradGradGradGradGrad
 Berny optimization.
 Search for a local minimum.
 Step number   1 out of a maximum of    2
 All quantities printed in internal units (Hartrees-Bohrs-Radians)
 Second derivative matrix not updated -- first step.
 ITU=  0
     Eigenvalues ---    0.00052   0.00098   0.00106   0.00129   0.00165
     Eigenvalues ---    0.00296   0.00370   0.00378   0.00467   0.00482
     Eigenvalues ---    0.00573   0.00750   0.00911   0.00947   0.00993
     Eigenvalues ---    0.01044   0.01208   0.01393   0.01412   0.01539
     Eigenvalues ---    0.01726   0.01996   0.02102   0.02390   0.02544
     Eigenvalues ---    0.02936   0.03123   0.03256   0.03943   0.04072
     Eigenvalues ---    0.04247   0.04576   0.04839   0.04887   0.05044
     Eigenvalues ---    0.05142   0.05190   0.05492   0.05792   0.05857
     Eigenvalues ---    0.06069   0.06233   0.06364   0.06530   0.06975
     Eigenvalues ---    0.07171   0.07494   0.07613   0.07754   0.08225
     Eigenvalues ---    0.08585   0.08947   0.09682   0.09864   0.10342
     Eigenvalues ---    0.10925   0.11184   0.11977   0.12174   0.12242
     Eigenvalues ---    0.12752   0.13004   0.13203   0.13235   0.13847
     Eigenvalues ---    0.14037   0.14368   0.14979   0.15661   0.16291
     Eigenvalues ---    0.16663   0.16924   0.17721   0.18430   0.18938
     Eigenvalues ---    0.20106   0.21203   0.21882   0.21907   0.24085
     Eigenvalues ---    0.27093   0.27362   0.27782   0.31111   0.32969
     Eigenvalues ---    0.33836   0.35553   0.35897   0.36677   0.37402
     Eigenvalues ---    0.37402   0.37402   0.37402   0.37402   0.41361
     Eigenvalues ---    0.42182   0.44925   0.47909   0.53223   0.55669
     Eigenvalues ---    0.60742   0.66391   0.66846   0.69703   0.72931
     Eigenvalues ---    0.75719   0.79267   0.83406   0.87762   0.89723
     Eigenvalues ---    0.90362   0.92342   0.92750   0.93701   0.95074
     Eigenvalues ---    0.95522   0.96899   0.98976   1.01881   1.02406
     Eigenvalues ---    1.04320   1.06149   1.07491   1.10007   1.10243
     Eigenvalues ---    1.17168   1.17301   1.18470   1.23661   1.28063
     Eigenvalues ---    1.29874   1.33818   1.53189   1.53834   1.69386
     Eigenvalues ---    1.79368   2.04384   2.33377
 Quadratic step=5.450D+00 exceeds max=3.000D-01 adjusted using Lamda=-8.212D-02.
 Angle between NR and scaled steps=  69.03 degrees.
 Angle between quadratic step and forces=  42.53 degrees.
 Linear search not attempted -- first point.
 Variable       Old X    -DE/DX   Delta X   Delta X   Delta X     New X
                                 (Linear)    (Quad)   (Total)
    X1        6.60959  -0.00560   0.00000  -0.01769  -0.01769   6.59190
    Y1       -6.93483   0.01416   0.00000   0.02677   0.02677  -6.90806
    Z1       -1.32057  -0.00077   0.00000  -0.00047  -0.00047  -1.32104
    X2        6.78607  -0.00037   0.00000  -0.02032  -0.02032   6.76575
    Y2       -7.24328  -0.00367   0.00000  -0.00918  -0.00918  -7.25245
    Z2       -3.34247  -0.00133   0.00000  -0.00063  -0.00063  -3.34309
    X3        8.30447   0.00085   0.00000  -0.02093  -0.02093   8.28354
    Y3       -7.60273  -0.00440   0.00000  -0.01679  -0.01679  -7.61952
    Z3       -0.37422   0.00085   0.00000  -0.00606  -0.00606  -0.38028
    X4        3.10768   0.00423   0.00000   0.00561   0.00561   3.11329
    Y4       -2.43659  -0.00520   0.00000   0.00080   0.00080  -2.43579
    Z4        1.85936  -0.00486   0.00000  -0.01819  -0.01819   1.84118
    X5        1.82401   0.00455   0.00000   0.01590   0.01590   1.83991
    Y5       -4.08900   0.00495   0.00000   0.01375   0.01375  -4.07525
    Z5        1.79747  -0.00016   0.00000  -0.00917  -0.00917   1.78830
    X6        2.56674   0.00128   0.00000  -0.00879  -0.00879   2.55795
    Y6       -0.85429  -0.00444   0.00000   0.00283   0.00283  -0.85147
    Z6        3.89745  -0.01024   0.00000  -0.03704  -0.03704   3.86040
    X7        0.82694  -0.00609   0.00000  -0.01784  -0.01784   0.80910
    Y7       -0.30116   0.00232   0.00000   0.00947   0.00947  -0.29170
    Z7        3.77538   0.00202   0.00000   0.00563   0.00563   3.78101
    X8        5.86244  -0.01170   0.00000  -0.01323  -0.01323   5.84921
    Y8       -3.39082  -0.00608   0.00000   0.00328   0.00328  -3.38754
    Z8        1.96918  -0.00500   0.00000  -0.00860  -0.00860   1.96058
    X9        6.02981   0.00106   0.00000   0.00191   0.00191   6.03172
    Y9       -5.06092   0.00531   0.00000   0.01957   0.01957  -5.04134
    Z9        3.20572  -0.00259   0.00000  -0.00919  -0.00919   3.19653
   X10        7.33316   0.00699   0.00000   0.01417   0.01417   7.34733
   Y10       -1.36515  -0.00126   0.00000  -0.00313  -0.00313  -1.36828
   Z10        2.83947  -0.00093   0.00000  -0.01614  -0.01614   2.82332
   X11        9.07566  -0.00186   0.00000   0.00955   0.00955   9.08521
   Y11       -1.89455   0.00177   0.00000  -0.00204  -0.00204  -1.89659
   Z11        2.87216   0.00037   0.00000  -0.00786  -0.00786   2.86430
   X12        3.14473  -0.00598   0.00000   0.00043   0.00043   3.14515
   Y12       -1.19044   0.00345   0.00000   0.01143   0.01143  -1.17901
   Z12       -0.79273   0.00328   0.00000   0.00978   0.00978  -0.78295
   X13        4.25280  -0.00320   0.00000  -0.00645  -0.00645   4.24635
   Y13        0.55927  -0.00151   0.00000   0.00754   0.00754   0.56681
   Z13       -0.61676  -0.00285   0.00000  -0.01459  -0.01459  -0.63136
   X14        6.40368   0.00055   0.00000  -0.00617  -0.00617   6.39751
   Y14       -4.10247   0.00146   0.00000   0.01378   0.01378  -4.08869
   Z14       -0.84873   0.00645   0.00000   0.01575   0.01575  -0.83298
   X15        8.19849  -0.00256   0.00000  -0.01705  -0.01705   8.18144
   Y15       -3.22633   0.00213   0.00000   0.02365   0.02365  -3.20268
   Z15       -1.41700   0.00155   0.00000   0.01114   0.01114  -1.40585
   X16        4.40827  -0.00186   0.00000  -0.01433  -0.01433   4.39394
   Y16       -2.99600  -0.00097   0.00000  -0.00182  -0.00182  -2.99782
   Z16       -2.32823   0.00740   0.00000   0.02763   0.02763  -2.30060
   X17        0.69029   0.02271   0.00000   0.02563   0.02563   0.71592
   Y17       -0.52298   0.00660   0.00000   0.00715   0.00715  -0.51583
   Z17       -1.85713   0.00597   0.00000   0.01301   0.01301  -1.84412
   X18       -1.21873  -0.00266   0.00000   0.00868   0.00868  -1.21004
   Y18       -2.29178  -0.00848   0.00000  -0.00612  -0.00612  -2.29790
   Z18       -2.04172   0.00195   0.00000   0.01305   0.01305  -2.02867
   X19       -0.75122   0.00349   0.00000   0.02642   0.02642  -0.72479
   Y19       -4.21614   0.00040   0.00000   0.00191   0.00191  -4.21423
   Z19       -1.55263   0.00054   0.00000   0.01851   0.01851  -1.53412
   X20       -3.50448  -0.00435   0.00000  -0.00477  -0.00477  -3.50926
   Y20       -1.66577  -0.00359   0.00000  -0.01825  -0.01825  -1.68402
   Z20       -2.86506  -0.00046   0.00000   0.00486   0.00486  -2.86020
   X21       -4.94250  -0.00087   0.00000  -0.00407  -0.00407  -4.94657
   Y21       -3.08986  -0.00372   0.00000  -0.02483  -0.02483  -3.11468
   Z21       -3.06443   0.00095   0.00000   0.02083   0.02083  -3.04360
   X22       -4.12064  -0.01827   0.00000  -0.02277  -0.02277  -4.14341
   Y22        0.95596   0.01939   0.00000  -0.01059  -0.01059   0.94537
   Z22       -3.49605   0.02348   0.00000  -0.00448  -0.00448  -3.50054
   X23       -5.64580  -0.00129   0.00000  -0.01853  -0.01853  -5.66433
   Y23        1.13156   0.00048   0.00000   0.00627   0.00627   1.13783
   Z23       -4.85232  -0.00270   0.00000  -0.00915  -0.00915  -4.86147
   X24       -5.03432   0.01461   0.00000   0.03081   0.03081  -5.00351
   Y24        2.13409  -0.03181   0.00000  -0.14762  -0.14762   1.98647
   Z24       -1.57511  -0.03656   0.00000  -0.11765  -0.11765  -1.69277
   X25       -1.85141  -0.01165   0.00000  -0.01908  -0.01908  -1.87050
   Y25        2.46756   0.00717   0.00000   0.00305   0.00305   2.47061
   Z25       -4.04526  -0.00629   0.00000   0.01044   0.01044  -4.03482
   X26        0.36412   0.00499   0.00000   0.00448   0.00448   0.36861
   Y26        1.77731  -0.00458   0.00000  -0.00012  -0.00012   1.77719
   Z26       -3.03764   0.00261   0.00000   0.00590   0.00590  -3.03173
   X27        1.99553   0.00396   0.00000   0.01352   0.01352   2.00905
   Y27        2.98550   0.00081   0.00000   0.00247   0.00247   2.98797
   Z27       -3.19371   0.00126   0.00000   0.01035   0.01035  -3.18336
   X28       -2.15514  -0.01433   0.00000  -0.00565  -0.00565  -2.16079
   Y28        4.96089  -0.00908   0.00000  -0.00470  -0.00470   4.95619
   Z28       -5.33564   0.00017   0.00000   0.01944   0.01944  -5.31619
   X29       -0.89853   0.00293   0.00000   0.01119   0.01119  -0.88734
   Y29        6.78211   0.00686   0.00000   0.00552   0.00552   6.78763
   Z29       -4.80631  -0.00506   0.00000  -0.03590  -0.03590  -4.84221
   X30       -4.22815   0.02617   0.00000   0.06481   0.06481  -4.16334
   Y30        5.08403  -0.00037   0.00000  -0.00298  -0.00298   5.08106
   Z30       -7.06080  -0.00486   0.00000  -0.00325  -0.00325  -7.06405
   X31       -4.03224  -0.00261   0.00000   0.00910   0.00910  -4.02314
   Y31        6.63474  -0.00566   0.00000   0.00660   0.00660   6.64134
   Z31       -8.20406   0.00814   0.00000   0.03234   0.03234  -8.17173
   X32       -4.36232  -0.00286   0.00000  -0.01149  -0.01149  -4.37381
   Y32        3.48689   0.00630   0.00000   0.00647   0.00647   3.49336
   Z32       -8.14500   0.00739   0.00000   0.02851   0.02851  -8.11649
   X33        1.26519  -0.00204   0.00000  -0.00790  -0.00790   1.25728
   Y33        4.04689  -0.01010   0.00000  -0.02436  -0.02436   4.02253
   Z33        7.17732  -0.00035   0.00000  -0.00070  -0.00070   7.17662
   X34       -2.04509  -0.00308   0.00000   0.01080   0.01080  -2.03429
   Y34        3.88352  -0.02962   0.00000  -0.02512  -0.02512   3.85840
   Z34        3.23624   0.01379   0.00000   0.00399   0.00399   3.24024
   X35       -3.45339  -0.00123   0.00000   0.00415   0.00415  -3.44924
   Y35        5.05254   0.00113   0.00000   0.01374   0.01374   5.06629
   Z35        1.23519  -0.01141   0.00000   0.00356   0.00356   1.23875
   X36       -7.29129  -0.00111   0.00000  -0.01638  -0.01638  -7.30768
   Y36        5.80702   0.00017   0.00000   0.00526   0.00526   5.81228
   Z36       -1.30457  -0.00482   0.00000  -0.01102  -0.01102  -1.31559
   X37       -5.65987  -0.00925   0.00000  -0.04578  -0.04578  -5.70565
   Y37        4.14070   0.01635   0.00000   0.06552   0.06552   4.20622
   Z37        0.29779   0.02858   0.00000   0.09291   0.09291   0.39070
   X38       -2.30291   0.00034   0.00000  -0.00181  -0.00181  -2.30472
   Y38        1.69381   0.01287   0.00000  -0.02246  -0.02246   1.67136
   Z38        4.01174  -0.01016   0.00000  -0.04417  -0.04417   3.96757
   X39        0.07423   0.01378   0.00000   0.02540   0.02540   0.09963
   Y39        5.96152   0.01434   0.00000   0.00901   0.00901   5.97054
   Z39        4.63223   0.00793   0.00000   0.01624   0.01624   4.64847
   X40       -0.34092   0.00124   0.00000  -0.00341  -0.00341  -0.34433
   Y40        3.26753   0.00062   0.00000  -0.01022  -0.01022   3.25731
   Z40        8.20406   0.00023   0.00000   0.00698   0.00698   8.21105
   X41        2.35634   0.00109   0.00000   0.01725   0.01725   2.37358
   Y41        2.49808   0.00089   0.00000  -0.01009  -0.01009   2.48800
   Z41        6.37744   0.00229   0.00000   0.01930   0.01930   6.39674
   X42       -7.69972  -0.00198   0.00000   0.00305   0.00305  -7.69666
   Y42        4.98975  -0.00142   0.00000  -0.03249  -0.03249   4.95726
   Z42       -3.14374  -0.00186   0.00000  -0.00526  -0.00526  -3.14900
   X43       -6.35708   0.00084   0.00000  -0.00704  -0.00704  -6.36411
   Y43        7.60273   0.00365   0.00000   0.00625   0.00625   7.60898
   Z43       -1.61492  -0.00227   0.00000  -0.03367  -0.03367  -1.64859
   X44       -9.07566  -0.00182   0.00000  -0.02281  -0.02281  -9.09847
   Y44        6.14497   0.00102   0.00000   0.01438   0.01438   6.15935
   Z44       -0.34192   0.00055   0.00000  -0.02610  -0.02610  -0.36802
   X45       -6.66879   0.00520   0.00000   0.01692   0.01692  -6.65187
   Y45        2.76787  -0.00594   0.00000  -0.03945  -0.03945   2.72842
   Z45        1.45553  -0.00398   0.00000   0.00831   0.00831   1.46384
   X46       -2.64478   0.00022   0.00000   0.00674   0.00674  -2.63805
   Y46        6.75553   0.00418   0.00000   0.01321   0.01321   6.76874
   Z46        0.45883  -0.00232   0.00000  -0.01508  -0.01508   0.44375
   X47        4.94642   0.00059   0.00000  -0.00860  -0.00860   4.93781
   Y47       -7.91201  -0.00185   0.00000   0.00600   0.00600  -7.90601
   Z47       -0.59825  -0.00051   0.00000  -0.00290  -0.00290  -0.60115
   X48        2.46134  -0.00303   0.00000  -0.02785  -0.02785   2.43350
   Y48        5.12299   0.00499   0.00000   0.02876   0.02876   5.15175
   Z48        8.46340  -0.00542   0.00000  -0.03032  -0.03032   8.43308
         Item               Value     Threshold  Converged?
 Maximum Force            0.036563     0.000450     NO 
 RMS     Force            0.008598     0.000300     NO 
 Maximum Displacement     0.147618     0.001800     NO 
 RMS     Displacement     0.025002     0.001200     NO 
 Predicted change in Energy=-1.510151D-02
 GradGradGradGradGradGradGradGradGradGradGradGradGradGradGradGradGradGrad

 Leave Link  103 at Sun Apr  9 10:47:16 2023, MaxMem=  2684354560 cpu:               1.8 elap:               0.1
 (Enter /opt/gaussian/g16/l9999.exe)

 Test job not archived.
 1\1\GINC-JULIO-SYS\Force\RM062X\def2TZVP\C16H24N2O5S1\JVELAZQUEZ\09-Ap
 r-2023\0\\#P M062X/Def2TZVP scf=(direct,conver=8) EmpiricalDispersion=
 GD3 NoSymm Force pop=(NBORead) Charge Prop=(Field,Read)\\Gaussian run 
 using SANDER external interface, route from template gau_job.tpl\\0,1\
 C,3.4976466447,-3.6697545045,-0.6988158946\H,3.5910318356,-3.832976969
 3,-1.7687579459\H,4.3945349402,-4.0231907621,-0.1980298627\C,1.6445138
 139,-1.2893856511,0.9839329544\H,0.9652251101,-2.16380798,0.9511791207
 \O,1.3582603778,-0.4520724667,2.062439087\H,0.4375973338,-0.1593673946
 ,1.9978469646\C,3.1022711191,-1.7943453904,1.0420465511\H,3.1908386495
 ,-2.6781227026,1.6963918379\O,3.8805419593,-0.7224072224,1.5025811678\
 H,4.8026332758,-1.0025505836,1.5198824771\C,1.6641170447,-0.629953536,
 -0.4194940173\H,2.2504858339,0.2959540842,-0.3263773172\C,3.3886792606
 ,-2.170932996,-0.4491296265\H,4.3384541585,-1.7073006359,-0.7498422043
 \O,2.3327565803,-1.5854137805,-1.2320456762\N,0.365287253,-0.276751603
 ,-0.9827502717\C,-0.6449218026,-1.2127569429,-1.0804307616\H,-0.397526
 9275,-2.231083471,-0.8216179122\C,-1.8544932629,-0.8814893061,-1.51612
 27696\H,-2.6154580753,-1.635081806,-1.621628792\C,-2.1805478504,0.5058
 69706,-1.8500319134\H,-2.9876282249,0.5987958933,-2.5677394905\H,-2.66
 40495463,1.129312891,-0.8335147366\C,-0.9797253519,1.3057760419,-2.140
 6577067\C,0.1926866451,0.9405140939,-1.6074482352\H,1.0559873755,1.579
 8590112,-1.6900398344\C,-1.1404489037,2.6251884243,-2.8234981937\O,-0.
 4754810868,3.5889391863,-2.5433904174\N,-2.2374401672,2.6903544919,-3.
 7364148516\H,-2.1337718456,3.510950732,-4.3414033484\H,-2.3084388247,1
 .8451824987,-4.3101477784\C,0.6695073695,2.1415231461,3.7980753829\C,-
 1.0822130492,2.0550700822,1.7125468997\C,-1.8274560927,2.6736909478,0.
 6536342968\C,-3.8583860098,3.072940301,-0.6903480058\C,-2.9950729841,2
 .1911646634,0.157584571\O,-1.2186470051,0.8963277154,2.1229197431\S,0.
 0392792677,3.1547031259,2.4512690713\H,-0.1804078147,1.7291026755,4.34
 14033484\H,1.2469190937,1.3219294922,3.3747969249\H,-4.0745148,2.64046
 15147,-1.6635955849\H,-3.3640204496,4.0231907621,-0.8545768103\H,-4.80
 26332758,3.2517778874,-0.1809358721\H,-3.5289709975,1.4646950559,0.770
 2338139\H,-1.3995582575,3.5748703357,0.2428037316\H,2.617531103,-4.186
 8549901,-0.31658073\H,1.3024864427,2.7109717627,4.4786382132\\Version=
 ES64L-G16RevA.03\HF=-1507.8677185\RMSD=4.175e-09\RMSF=8.598e-03\Dipole
 =0.195965,-1.5094335,-0.8958408\Quadrupole=10.772701,-8.9366389,-1.836
 0621,-8.6027427,8.8542593,-1.4713499\PG=C01 [X(C16H24N2O5S1)]\\@


 THE NUMBERS ARE MEANINGLESS, BUT THE TRENDS ARE IMPORTANT.
     -- LARRY BURGGRAF
 Job cpu time:       0 days  7 hours 11 minutes 28.2 seconds.
 Elapsed time:       0 days  0 hours 26 minutes 58.7 seconds.
 File lengths (MBytes):  RWF=    435 Int=      0 D2E=      0 Chk=     48 Scr=      1
 Normal termination of Gaussian 16 at Sun Apr  9 10:47:16 2023.
