 Entering Gaussian System, Link 0=g16
 Initial command:
 /opt/gaussian/g16/l1.exe "/opt/gaussian/scratch16/Gau-3406638.inp" -scrdir="/opt/gaussian/scratch16/"
 Entering Link 1 = /opt/gaussian/g16/l1.exe PID=   3406640.
  
 Copyright (c) 1988,1990,1992,1993,1995,1998,2003,2009,2016,
            Gaussian, Inc.  All Rights Reserved.
  
 This is part of the Gaussian(R) 16 program.  It is based on
 the Gaussian(R) 09 system (copyright 2009, Gaussian, Inc.),
 the Gaussian(R) 03 system (copyright 2003, Gaussian, Inc.),
 the Gaussian(R) 98 system (copyright 1998, Gaussian, Inc.),
 the Gaussian(R) 94 system (copyright 1995, Gaussian, Inc.),
 the Gaussian 92(TM) system (copyright 1992, Gaussian, Inc.),
 the Gaussian 90(TM) system (copyright 1990, Gaussian, Inc.),
 the Gaussian 88(TM) system (copyright 1988, Gaussian, Inc.),
 the Gaussian 86(TM) system (copyright 1986, Carnegie Mellon
 University), and the Gaussian 82(TM) system (copyright 1983,
 Carnegie Mellon University). Gaussian is a federally registered
 trademark of Gaussian, Inc.
  
 This software contains proprietary and confidential information,
 including trade secrets, belonging to Gaussian, Inc.
  
 This software is provided under written license and may be
 used, copied, transmitted, or stored only in accord with that
 written license.
  
 The following legend is applicable only to US Government
 contracts under FAR:
  
                    RESTRICTED RIGHTS LEGEND
  
 Use, reproduction and disclosure by the US Government is
 subject to restrictions as set forth in subparagraphs (a)
 and (c) of the Commercial Computer Software - Restricted
 Rights clause in FAR 52.227-19.
  
 Gaussian, Inc.
 340 Quinnipiac St., Bldg. 40, Wallingford CT 06492
  
  
 ---------------------------------------------------------------
 Warning -- This program may not be used in any manner that
 competes with the business of Gaussian, Inc. or will provide
 assistance to any competitor of Gaussian, Inc.  The licensee
 of this program is prohibited from giving any competitor of
 Gaussian, Inc. access to this program.  By using this program,
 the user acknowledges that Gaussian, Inc. is engaged in the
 business of creating and licensing software in the field of
 computational chemistry and represents and warrants to the
 licensee that it is not a competitor of Gaussian, Inc. and that
 it will not use this program in any manner prohibited above.
 ---------------------------------------------------------------
  

 Cite this work as:
 Gaussian 16, Revision A.03,
 M. J. Frisch, G. W. Trucks, H. B. Schlegel, G. E. Scuseria, 
 M. A. Robb, J. R. Cheeseman, G. Scalmani, V. Barone, 
 G. A. Petersson, H. Nakatsuji, X. Li, M. Caricato, A. V. Marenich, 
 J. Bloino, B. G. Janesko, R. Gomperts, B. Mennucci, H. P. Hratchian, 
 J. V. Ortiz, A. F. Izmaylov, J. L. Sonnenberg, D. Williams-Young, 
 F. Ding, F. Lipparini, F. Egidi, J. Goings, B. Peng, A. Petrone, 
 T. Henderson, D. Ranasinghe, V. G. Zakrzewski, J. Gao, N. Rega, 
 G. Zheng, W. Liang, M. Hada, M. Ehara, K. Toyota, R. Fukuda, 
 J. Hasegawa, M. Ishida, T. Nakajima, Y. Honda, O. Kitao, H. Nakai, 
 T. Vreven, K. Throssell, J. A. Montgomery, Jr., J. E. Peralta, 
 F. Ogliaro, M. J. Bearpark, J. J. Heyd, E. N. Brothers, K. N. Kudin, 
 V. N. Staroverov, T. A. Keith, R. Kobayashi, J. Normand, 
 K. Raghavachari, A. P. Rendell, J. C. Burant, S. S. Iyengar, 
 J. Tomasi, M. Cossi, J. M. Millam, M. Klene, C. Adamo, R. Cammi, 
 J. W. Ochterski, R. L. Martin, K. Morokuma, O. Farkas, 
 J. B. Foresman, and D. J. Fox, Gaussian, Inc., Wallingford CT, 2016.
 
 ******************************************
 Gaussian 16:  ES64L-G16RevA.03 25-Dec-2016
                 9-Apr-2023 
 ******************************************
 %chk=18.chk
 %NProcShared=16
 Will use up to   16 processors via shared memory.
 %mem=20GB
 ----------------------------------------------------------------------
 #P M062X/Def2TZVP scf=(direct,conver=8) EmpiricalDispersion=GD3 NoSymm
  Force pop=(NBORead) Charge Prop=(Field,Read)
 ----------------------------------------------------------------------
 1/10=7,18=10,28=-2,30=1,38=1,125=101/1,3;
 2/12=2,15=1,17=6,18=5,29=2,40=1/2;
 3/5=44,7=101,11=2,25=1,30=1,71=1,74=-55,124=31/1,2,3;
 4//1;
 5/5=2,6=8,38=5/2;
 6/7=2,8=2,9=2,10=2,14=2,15=1,28=1,40=2/1,2,7;
 7/7=1,16=-2,29=1,30=1/1,2,3,16;
 1/10=7,18=10,28=-2,30=1/3;
 99/12=1/99;
 Leave Link    1 at Sun Apr  9 10:21:21 2023, MaxMem=  2684354560 cpu:               1.0 elap:               0.1
 (Enter /opt/gaussian/g16/l101.exe)
 ----------------------------------------------------------------------
 Gaussian run using SANDER external interface, route from template gau_
 job.tpl
 ----------------------------------------------------------------------
 Symbolic Z-matrix:
 Charge =  0 Multiplicity = 1
 C                     3.49224  -3.65733  -0.69512 
 H                     3.58308  -3.81984  -1.76538 
 H                     4.39026  -4.01109  -0.19699 
 C                     1.63875  -1.27216   0.98563 
 H                     0.95775  -2.14554   0.95553 
 O                     1.35852  -0.43354   2.06381 
 H                     0.43696  -0.13812   2.00669 
 C                     3.09658  -1.78038   1.04543 
 H                     3.1813   -2.66328   1.70152 
 O                     3.87639  -0.70941   1.50556 
 H                     4.79737  -0.99206   1.52954 
 C                     1.66281  -0.61521  -0.41986 
 H                     2.24942   0.3102   -0.32636 
 C                     3.38454  -2.15888  -0.44477 
 H                     4.33382  -1.69498  -0.74631 
 O                     2.32963  -1.57392  -1.22912 
 N                     0.36966  -0.26379  -0.99735 
 C                    -0.65056  -1.18589  -1.05793 
 H                    -0.41984  -2.19534  -0.75416 
 C                    -1.85902  -0.85497  -1.51045 
 H                    -2.63815  -1.59622  -1.55482 
 C                    -2.16458   0.51786  -1.87528 
 H                    -2.99053   0.63239  -2.56813 
 H                    -2.66581   1.16317  -0.82301 
 C                    -0.97435   1.3215   -2.15223 
 C                     0.19922   0.95432  -1.61042 
 H                     1.05895   1.6016   -1.6766 
 C                    -1.13553   2.64656  -2.82945 
 O                    -0.47131   3.60972  -2.54916 
 N                    -2.2351    2.71184  -3.74233 
 H                    -2.13011   3.52899  -4.35248 
 H                    -2.30045   1.86674  -4.31691 
 C                     0.66696   2.14508   3.80801 
 C                    -1.08354   2.04466   1.72292 
 C                    -1.83055   2.66083   0.67856 
 C                    -3.86681   3.06979  -0.65535 
 C                    -2.99659   2.16076   0.15676 
 O                    -1.21288   0.88065   2.13637 
 S                     0.04227   3.14804   2.45399 
 H                    -0.18536   1.73833   4.35248 
 H                     1.24434   1.32312   3.38946 
 H                    -4.11206   2.64209  -1.62175 
 H                    -3.35646   4.01109  -0.83357 
 H                    -4.79737   3.26606  -0.12515 
 H                    -3.53296   1.44775   0.78285 
 H                    -1.41809   3.57541   0.28213 
 H                     2.61302  -4.17451  -0.31095 
 H                     1.29965   2.72019   4.48406 
 
 ITRead=  0  0  0  0  0  0  0  0  0  0  0  0  0  0  0  0  0  0  0  0
 ITRead=  0  0  0  0  0  0  0  0  0  0  0  0  0  0  0  0  0  0  0  0
 ITRead=  0  0  0  0  0  0  0  0
 MicOpt= -1 -1 -1 -1 -1 -1 -1 -1 -1 -1 -1 -1 -1 -1 -1 -1 -1 -1 -1 -1
 MicOpt= -1 -1 -1 -1 -1 -1 -1 -1 -1 -1 -1 -1 -1 -1 -1 -1 -1 -1 -1 -1
 MicOpt= -1 -1 -1 -1 -1 -1 -1 -1
 NAtoms=     48 NQM=       48 NQMF=       0 NMMI=      0 NMMIF=      0
                NMic=       0 NMicF=      0.
                    Isotopes and Nuclear Properties:
 (Nuclear quadrupole moments (NQMom) in fm**2, nuclear magnetic moments (NMagM)
  in nuclear magnetons)

  Atom         1           2           3           4           5           6           7           8           9          10
 IAtWgt=          12           1           1          12           1          16           1          12           1          16
 AtmWgt=  12.0000000   1.0078250   1.0078250  12.0000000   1.0078250  15.9949146   1.0078250  12.0000000   1.0078250  15.9949146
 NucSpn=           0           1           1           0           1           0           1           0           1           0
 AtZEff=  -0.0000000  -0.0000000  -0.0000000  -0.0000000  -0.0000000  -0.0000000  -0.0000000  -0.0000000  -0.0000000  -0.0000000
 NQMom=    0.0000000   0.0000000   0.0000000   0.0000000   0.0000000   0.0000000   0.0000000   0.0000000   0.0000000   0.0000000
 NMagM=    0.0000000   2.7928460   2.7928460   0.0000000   2.7928460   0.0000000   2.7928460   0.0000000   2.7928460   0.0000000
 AtZNuc=   6.0000000   1.0000000   1.0000000   6.0000000   1.0000000   8.0000000   1.0000000   6.0000000   1.0000000   8.0000000

  Atom        11          12          13          14          15          16          17          18          19          20
 IAtWgt=           1          12           1          12           1          16          14          12           1          12
 AtmWgt=   1.0078250  12.0000000   1.0078250  12.0000000   1.0078250  15.9949146  14.0030740  12.0000000   1.0078250  12.0000000
 NucSpn=           1           0           1           0           1           0           2           0           1           0
 AtZEff=  -0.0000000  -0.0000000  -0.0000000  -0.0000000  -0.0000000  -0.0000000  -0.0000000  -0.0000000  -0.0000000  -0.0000000
 NQMom=    0.0000000   0.0000000   0.0000000   0.0000000   0.0000000   0.0000000   2.0440000   0.0000000   0.0000000   0.0000000
 NMagM=    2.7928460   0.0000000   2.7928460   0.0000000   2.7928460   0.0000000   0.4037610   0.0000000   2.7928460   0.0000000
 AtZNuc=   1.0000000   6.0000000   1.0000000   6.0000000   1.0000000   8.0000000   7.0000000   6.0000000   1.0000000   6.0000000

  Atom        21          22          23          24          25          26          27          28          29          30
 IAtWgt=           1          12           1           1          12          12           1          12          16          14
 AtmWgt=   1.0078250  12.0000000   1.0078250   1.0078250  12.0000000  12.0000000   1.0078250  12.0000000  15.9949146  14.0030740
 NucSpn=           1           0           1           1           0           0           1           0           0           2
 AtZEff=  -0.0000000  -0.0000000  -0.0000000  -0.0000000  -0.0000000  -0.0000000  -0.0000000  -0.0000000  -0.0000000  -0.0000000
 NQMom=    0.0000000   0.0000000   0.0000000   0.0000000   0.0000000   0.0000000   0.0000000   0.0000000   0.0000000   2.0440000
 NMagM=    2.7928460   0.0000000   2.7928460   2.7928460   0.0000000   0.0000000   2.7928460   0.0000000   0.0000000   0.4037610
 AtZNuc=   1.0000000   6.0000000   1.0000000   1.0000000   6.0000000   6.0000000   1.0000000   6.0000000   8.0000000   7.0000000

  Atom        31          32          33          34          35          36          37          38          39          40
 IAtWgt=           1           1          12          12          12          12          12          16          32           1
 AtmWgt=   1.0078250   1.0078250  12.0000000  12.0000000  12.0000000  12.0000000  12.0000000  15.9949146  31.9720718   1.0078250
 NucSpn=           1           1           0           0           0           0           0           0           0           1
 AtZEff=  -0.0000000  -0.0000000  -0.0000000  -0.0000000  -0.0000000  -0.0000000  -0.0000000  -0.0000000  -0.0000000  -0.0000000
 NQMom=    0.0000000   0.0000000   0.0000000   0.0000000   0.0000000   0.0000000   0.0000000   0.0000000   0.0000000   0.0000000
 NMagM=    2.7928460   2.7928460   0.0000000   0.0000000   0.0000000   0.0000000   0.0000000   0.0000000   0.0000000   2.7928460
 AtZNuc=   1.0000000   1.0000000   6.0000000   6.0000000   6.0000000   6.0000000   6.0000000   8.0000000  16.0000000   1.0000000

  Atom        41          42          43          44          45          46          47          48
 IAtWgt=           1           1           1           1           1           1           1           1
 AtmWgt=   1.0078250   1.0078250   1.0078250   1.0078250   1.0078250   1.0078250   1.0078250   1.0078250
 NucSpn=           1           1           1           1           1           1           1           1
 AtZEff=  -0.0000000  -0.0000000  -0.0000000  -0.0000000  -0.0000000  -0.0000000  -0.0000000  -0.0000000
 NQMom=    0.0000000   0.0000000   0.0000000   0.0000000   0.0000000   0.0000000   0.0000000   0.0000000
 NMagM=    2.7928460   2.7928460   2.7928460   2.7928460   2.7928460   2.7928460   2.7928460   2.7928460
 AtZNuc=   1.0000000   1.0000000   1.0000000   1.0000000   1.0000000   1.0000000   1.0000000   1.0000000
 Background charge distribution read from input stream:
 Leave Link  101 at Sun Apr  9 10:21:22 2023, MaxMem=  2684354560 cpu:               3.8 elap:               0.2
 (Enter /opt/gaussian/g16/l103.exe)

 GradGradGradGradGradGradGradGradGradGradGradGradGradGradGradGradGradGrad
 Berny optimization.
 Initialization pass.
 Trust Radius=3.00D-01 FncErr=1.00D-07 GrdErr=1.00D-07 EigMax=2.50D+02 EigMin=1.00D-04
 Number of steps in this run=      2 maximum allowed number of steps=      2.
 GradGradGradGradGradGradGradGradGradGradGradGradGradGradGradGradGradGrad

 Leave Link  103 at Sun Apr  9 10:21:22 2023, MaxMem=  2684354560 cpu:               0.4 elap:               0.0
 (Enter /opt/gaussian/g16/l202.exe)
 ---------------------------------------------------------------------------------------------------
                            Z-MATRIX (ANGSTROMS AND DEGREES)
   CD    Cent   Atom    N1       Length/X        N2       Alpha/Y        N3        Beta/Z          J
 ---------------------------------------------------------------------------------------------------
      1      1  C        0   3.492244         -3.657326         -0.695123
      2      2  H        0   3.583085         -3.819838         -1.765376
      3      3  H        0   4.390264         -4.011093         -0.196991
      4      4  C        0   1.638749         -1.272156          0.985625
      5      5  H        0   0.957751         -2.145543          0.955528
      6      6  O        0   1.358517         -0.433538          2.063812
      7      7  H        0   0.436959         -0.138119          2.006686
      8      8  C        0   3.096584         -1.780385          1.045434
      9      9  H        0   3.181295         -2.663275          1.701522
     10     10  O        0   3.876391         -0.709405          1.505560
     11     11  H        0   4.797367         -0.992060          1.529541
     12     12  C        0   1.662808         -0.615213         -0.419857
     13     13  H        0   2.249423          0.310202         -0.326363
     14     14  C        0   3.384535         -2.158878         -0.444768
     15     15  H        0   4.333824         -1.694984         -0.746315
     16     16  O        0   2.329631         -1.573925         -1.229121
     17     17  N        0   0.369661         -0.263792         -0.997347
     18     18  C        0  -0.650559         -1.185887         -1.057929
     19     19  H        0  -0.419844         -2.195339         -0.754163
     20     20  C        0  -1.859015         -0.854973         -1.510449
     21     21  H        0  -2.638146         -1.596218         -1.554819
     22     22  C        0  -2.164579          0.517862         -1.875277
     23     23  H        0  -2.990534          0.632393         -2.568134
     24     24  H        0  -2.665805          1.163172         -0.823008
     25     25  C        0  -0.974351          1.321497         -2.152233
     26     26  C        0   0.199220          0.954324         -1.610421
     27     27  H        0   1.058952          1.601599         -1.676599
     28     28  C        0  -1.135530          2.646556         -2.829448
     29     29  O        0  -0.471313          3.609717         -2.549162
     30     30  N        0  -2.235097          2.711841         -3.742334
     31     31  H        0  -2.130106          3.528995         -4.352483
     32     32  H        0  -2.300450          1.866736         -4.316908
     33     33  C        0   0.666962          2.145080          3.808006
     34     34  C        0  -1.083537          2.044662          1.722919
     35     35  C        0  -1.830554          2.660826          0.678561
     36     36  C        0  -3.866810          3.069792         -0.655347
     37     37  C        0  -2.996587          2.160758          0.156758
     38     38  O        0  -1.212881          0.880646          2.136372
     39     39  S        0   0.042267          3.148044          2.453991
     40     40  H        0  -0.185357          1.738331          4.352483
     41     41  H        0   1.244335          1.323120          3.389463
     42     42  H        0  -4.112057          2.642091         -1.621748
     43     43  H        0  -3.356463          4.011093         -0.833572
     44     44  H        0  -4.797367          3.266064         -0.125153
     45     45  H        0  -3.532955          1.447752          0.782848
     46     46  H        0  -1.418089          3.575406          0.282130
     47     47  H        0   2.613021         -4.174507         -0.310947
     48     48  H        0   1.299645          2.720195          4.484064
 ---------------------------------------------------------------------------------------------------
                         Z-Matrix orientation:                         
 ---------------------------------------------------------------------
 Center     Atomic      Atomic             Coordinates (Angstroms)
 Number     Number       Type             X           Y           Z
 ---------------------------------------------------------------------
      1          6           0        3.492244   -3.657326   -0.695123
      2          1           0        3.583085   -3.819838   -1.765376
      3          1           0        4.390264   -4.011093   -0.196991
      4          6           0        1.638749   -1.272156    0.985625
      5          1           0        0.957751   -2.145543    0.955528
      6          8           0        1.358517   -0.433538    2.063812
      7          1           0        0.436959   -0.138119    2.006686
      8          6           0        3.096584   -1.780385    1.045434
      9          1           0        3.181295   -2.663275    1.701522
     10          8           0        3.876391   -0.709405    1.505560
     11          1           0        4.797367   -0.992060    1.529541
     12          6           0        1.662808   -0.615213   -0.419857
     13          1           0        2.249423    0.310202   -0.326363
     14          6           0        3.384535   -2.158878   -0.444768
     15          1           0        4.333824   -1.694984   -0.746315
     16          8           0        2.329631   -1.573925   -1.229121
     17          7           0        0.369661   -0.263792   -0.997347
     18          6           0       -0.650559   -1.185887   -1.057929
     19          1           0       -0.419844   -2.195339   -0.754163
     20          6           0       -1.859015   -0.854973   -1.510449
     21          1           0       -2.638146   -1.596218   -1.554819
     22          6           0       -2.164579    0.517862   -1.875277
     23          1           0       -2.990534    0.632393   -2.568134
     24          1           0       -2.665805    1.163172   -0.823008
     25          6           0       -0.974351    1.321497   -2.152233
     26          6           0        0.199220    0.954324   -1.610421
     27          1           0        1.058952    1.601599   -1.676599
     28          6           0       -1.135530    2.646556   -2.829448
     29          8           0       -0.471313    3.609717   -2.549162
     30          7           0       -2.235097    2.711841   -3.742334
     31          1           0       -2.130106    3.528995   -4.352483
     32          1           0       -2.300450    1.866736   -4.316908
     33          6           0        0.666962    2.145080    3.808006
     34          6           0       -1.083537    2.044662    1.722919
     35          6           0       -1.830554    2.660826    0.678561
     36          6           0       -3.866810    3.069792   -0.655347
     37          6           0       -2.996587    2.160758    0.156758
     38          8           0       -1.212881    0.880646    2.136372
     39         16           0        0.042267    3.148044    2.453991
     40          1           0       -0.185357    1.738331    4.352483
     41          1           0        1.244335    1.323120    3.389463
     42          1           0       -4.112057    2.642091   -1.621748
     43          1           0       -3.356463    4.011093   -0.833572
     44          1           0       -4.797367    3.266064   -0.125153
     45          1           0       -3.532955    1.447752    0.782848
     46          1           0       -1.418089    3.575406    0.282130
     47          1           0        2.613021   -4.174507   -0.310947
     48          1           0        1.299645    2.720195    4.484064
 ---------------------------------------------------------------------
                    Distance matrix (angstroms):
                    1          2          3          4          5
     1  C    0.000000
     2  H    1.086326   0.000000
     3  H    1.086152   1.774245   0.000000
     4  C    3.456789   4.223639   4.058471   0.000000
     5  H    3.381389   4.135089   4.073171   1.107913   0.000000
     6  O    4.749455   5.574802   5.205922   1.394381   2.078430
     7  H    5.386961   6.138535   5.956907   1.942397   2.325061
     8  C    2.590172   3.506666   2.862391   1.545042   2.171643
     9  H    2.613184   3.676745   2.623465   2.197082   2.401812
    10  O    3.698758   4.523256   3.750185   2.365177   3.299014
    11  H    3.708924   4.508579   3.501600   3.217322   4.050020
    12  C    3.560485   3.970832   4.361270   1.551622   2.175017
    13  H    4.173951   4.572379   4.824264   2.144316   3.056525
    14  C    1.523032   2.131248   2.122164   2.424885   2.801837
    15  H    2.135805   2.473277   2.381029   3.231381   3.807511
    16  O    2.444868   2.627326   3.354294   2.339548   2.642252
    17  N    4.621464   4.854011   5.554105   2.561164   2.774988
    18  C    4.837608   5.036062   5.842337   3.069933   2.749839
    19  H    4.176760   4.436777   5.171512   2.849024   2.196199
    20  C    6.095401   6.202570   7.123184   4.317266   3.959897
    21  H    6.524486   6.610032   7.554724   4.985048   4.419737
    22  C    7.129137   7.201622   8.142115   5.084706   4.985592
    23  H    7.996016   7.979928   9.036617   6.138956   5.976795
    24  H    7.821453   8.047800   8.772287   5.266039   5.219286
    25  C    6.845606   6.881367   7.812719   4.837508   5.040989
    26  C    5.740130   5.853818   6.649662   3.710649   4.094953
    27  H    5.877116   5.980896   6.692472   3.960060   4.580329
    28  C    8.106205   8.075384   9.043700   6.132513   6.455392
    29  O    8.482756   8.500044   9.340470   6.385904   6.888258
    30  N    9.091436   8.967856  10.082792   7.296062   7.473846
    31  H    9.830071   9.661212  10.799826   8.108682   8.361233
    32  H    8.785664   8.571081   9.812657   7.313467   7.383282
    33  C    7.869454   8.668714   8.234163   4.537368   5.160488
    34  C    7.700478   8.266676   8.385745   4.353818   4.723724
    35  C    8.374857   8.790866   9.164042   5.253447   5.563501
    36  C    9.970525  10.207845  10.887069   7.201145   7.284986
    37  C    8.756753   9.096935   9.632365   5.827372   5.900767
    38  O    7.123816   7.766562   7.795443   3.753742   3.906899
    39  S    8.254230   8.882107   8.785557   4.923721   5.577237
    40  H    8.253253   9.084195   8.642332   4.870948   5.284929
    41  H    6.822153   7.648015   7.156350   3.559418   4.247092
    42  H    9.917997  10.049496  10.889639   7.429098   7.434161
    43  H   10.282441  10.504716  11.170160   7.494955   7.727709
    44  H   10.815537  11.096500  11.720696   7.953167   7.973377
    45  H    8.809066   9.212979   9.671425   5.846841   5.753958
    46  H    8.796522   9.159348   9.566686   5.773909   6.231159
    47  H    1.090000   1.783865   1.788374   3.324748   2.908707
    48  H    8.503189   9.329610   8.762102   5.319110   6.020205
                    6          7          8          9         10
     6  O    0.000000
     7  H    0.969435   0.000000
     8  C    2.423215   3.270268   0.000000
     9  H    2.902672   3.741781   1.103233   0.000000
    10  O    2.593731   3.522384   1.402431   2.083067   0.000000
    11  H    3.524639   4.468785   1.936098   2.331142   0.963672
    12  C    2.508826   2.760151   2.358053   3.316717   2.935311
    13  H    2.657028   2.988166   2.640087   3.717832   2.653784
    14  C    3.657119   4.333740   1.564248   2.214110   2.479248
    15  H    4.282582   5.018805   2.179086   2.873641   2.500310
    16  O    3.617590   4.014249   2.409241   3.240476   3.258580
    17  N    3.221389   3.007414   3.729493   4.576757   4.331313
    18  C    3.787834   3.416486   4.338047   4.947763   5.224155
    19  H    3.769283   3.548035   3.971902   4.383783   5.076612
    20  C    4.827573   4.260940   5.652158   6.244313   6.481696
    21  H    5.515399   4.926118   6.299394   6.753389   7.252003
    22  C    5.369710   4.718892   6.441454   7.175757   7.030616
    23  H    6.442466   5.768047   7.478795   8.196516   8.096299
    24  H    5.203689   4.396325   6.735038   7.429908   7.192295
    25  C    5.128104   4.628054   6.034837   6.928148   6.405756
    26  C    4.095133   3.785950   4.788206   5.740102   5.098914
    27  H    4.268747   4.120690   4.795750   5.839966   4.837855
    28  C    6.296923   5.797873   7.247296   8.207252   7.427929
    29  O    6.401228   5.968835   7.396229   8.411914   7.348341
    30  N    7.517899   6.950783   8.457520   9.373620   8.751892
    31  H    8.309091   7.776669   9.200288  10.159044   9.399931
    32  H    7.706678   7.176399   8.437072   9.316224   8.870795
    33  C    3.189001   2.917302   5.379976   5.820604   4.873375
    34  C    3.495899   2.675250   5.706433   6.352474   5.677413
    35  C    4.654480   3.839222   6.643466   7.383166   6.679192
    36  C    6.853552   5.991622   8.654809   9.386089   8.883074
    37  C    5.416102   4.527285   7.310888   7.988982   7.569342
    38  O    2.888673   1.943367   5.180997   5.661914   5.369067
    39  S    3.835685   3.339870   5.966766   6.647642   5.520864
    40  H    3.512631   3.067753   5.838585   6.142970   5.531201
    41  H    2.203686   2.167752   4.307788   4.742605   3.822037
    42  H    7.278051   6.448926   8.867731   9.611661   9.210205
    43  H    7.097930   6.298656   8.872074   9.680711   8.948118
    44  H    7.508230   6.597830   9.442001  10.107070   9.679755
    45  H    5.395055   4.446682   7.378388   7.926265   7.750746
    46  H    5.191875   4.495060   7.046233   7.879731   6.920109
    47  H    4.605227   5.138005   2.793819   2.580075   4.111294
    48  H    3.975816   3.879638   5.942086   6.345463   5.222381
                   11         12         13         14         15
    11  H    0.000000
    12  C    3.710475   0.000000
    13  H    3.410614   1.099660   0.000000
    14  C    2.693594   2.312545   2.720084   0.000000
    15  H    2.426622   2.899449   2.922646   1.098761   0.000000
    16  O    3.746799   1.420806   2.090775   1.438820   2.065078
    17  N    5.149769   1.459185   2.076823   3.603632   4.222075
    18  C    6.034275   2.466672   3.344154   4.195792   5.019996
    19  H    5.820865   2.635526   3.685883   3.817114   4.779935
    20  C    7.318999   3.694606   4.431586   5.507329   6.296092
    21  H    8.072492   4.555075   5.388123   6.149918   7.019387
    22  C    7.895653   4.248647   4.682485   6.324869   6.957046
    23  H    8.948809   5.274960   5.708458   7.276083   7.898223
    24  H    8.116554   4.697029   5.013350   6.912720   7.561068
    25  C    7.226391   3.702240   3.840473   5.833382   6.265181
    26  C    5.898367   2.454176   2.503404   4.604021   4.986027
    27  H    5.566161   2.618836   2.215415   4.589873   4.738953
    28  C    8.212160   4.927065   4.814757   7.014976   7.287129
    29  O    8.097602   5.190226   4.819755   7.250705   7.381020
    30  N    9.537667   6.107521   6.127613   8.134993   8.458544
    31  H   10.150272   6.857566   6.763915   8.833652   9.059624
    32  H    9.629781   6.087241   6.248887   7.969824   8.333581
    33  C    5.665094   5.146431   4.792073   6.632898   6.995270
    34  C    6.621488   4.382789   4.279781   6.506326   7.030638
    35  C    7.615581   4.913505   4.814719   7.189477   7.681335
    36  C    9.815311   6.649165   6.718026   8.942334   9.484817
    37  C    8.518833   5.454216   5.583779   7.729154   8.331700
    38  O    6.324425   4.128134   4.286959   6.085822   6.760894
    39  S    6.372287   5.004724   4.544805   6.909195   7.219026
    40  H    6.344413   5.632949   5.464367   7.137646   7.629442
    41  H    4.630702   4.294551   3.980398   5.604113   5.979845
    42  H   10.124994   6.738222   6.898127   8.979615   9.534648
    43  H    9.853973   6.838636   6.736454   9.146626   9.576400
    44  H   10.626784   7.542216   7.644269   9.822203  10.410402
    45  H    8.712319   5.718241   5.996688   7.897246   8.608214
    46  H    7.813429   5.248429   4.947976   7.515024   7.868876
    47  H    4.276299   3.685558   4.499451   2.162384   3.049384
    48  H    5.894412   5.941824   5.463547   7.241926   7.487116
                   16         17         18         19         20
    16  O    0.000000
    17  N    2.368892   0.000000
    18  C    3.010219   1.376509   0.000000
    19  H    2.858558   2.100792   1.079119   0.000000
    20  C    4.259201   2.362153   1.332158   2.107075   0.000000
    21  H    4.978492   3.336620   2.089443   2.433281   1.076316
    22  C    4.999101   2.793585   2.421378   3.415034   1.452978
    23  H    5.913117   3.815944   3.326010   4.230249   2.147392
    24  H    5.710605   3.358672   3.103946   4.040876   2.279560
    25  C    4.489087   2.377661   2.754871   3.824947   2.435476
    26  C    3.328075   1.374306   2.368095   3.322168   2.742241
    27  H    3.449466   2.101474   3.327951   4.177854   3.817969
    28  C    5.690417   3.753974   4.249834   5.316292   3.811023
    29  O    6.038041   4.256694   5.025308   6.076458   4.789374
    30  N    6.746908   4.813950   4.990899   6.025340   4.224324
    31  H    7.462200   5.647212   5.939129   6.974303   5.231618
    32  H    6.542953   4.763206   4.760419   5.721039   3.934309
    33  C    6.478280   5.383537   6.042228   6.390130   6.608089
    34  C    5.784326   3.852349   4.284511   4.955203   4.411793
    35  C    6.235344   4.025296   4.382350   5.255963   4.141669
    36  C    7.764612   5.401614   5.349499   6.293881   4.490681
    37  C    6.651099   4.306046   4.263724   5.142467   3.628813
    38  O    5.468168   3.692475   3.845819   4.294856   4.090130
    39  S    6.410486   4.864108   5.621080   6.249603   5.946075
    40  H    6.960640   5.739096   6.167659   6.450316   6.625732
    41  H    5.558961   4.746309   5.446562   5.684952   6.195483
    42  H    7.708715   5.377716   5.191654   6.147021   4.161495
    43  H    7.980009   5.673223   5.863518   6.866573   5.136060
    44  H    8.685525   6.318131   6.155156   7.027466   5.247466
    45  H    6.895540   4.618321   4.316563   5.032492   3.655657
    46  H    6.545601   4.424088   5.005474   5.947427   4.799584
    47  H    2.772433   4.560428   4.487849   3.648536   5.697124
    48  H    7.220860   6.309906   7.055101   7.386348   7.661145
                   21         22         23         24         25
    21  H    0.000000
    22  C    2.190043   0.000000
    23  H    2.473397   1.084145   0.000000
    24  H    2.854916   1.332262   1.852738   0.000000
    25  C    3.411477   1.462593   2.170906   2.157063   0.000000
    26  C    3.815626   2.418304   3.345950   2.978591   1.343743
    27  H    4.889723   3.406628   4.258231   3.846382   2.106895
    28  C    4.677998   2.549652   2.750668   2.927110   1.496790
    29  O    5.725874   3.588989   3.900165   3.712275   2.376247
    30  N    4.848406   2.881739   2.504702   3.332619   2.459870
    31  H    5.861129   3.899316   3.509208   4.282673   3.324141
    32  H    4.442435   2.792757   2.249007   3.582712   2.596468
    33  C    7.326728   6.554782   7.504708   5.789453   6.236717
    34  C    5.139688   4.055464   4.903496   3.124475   3.943563
    35  C    4.874692   3.350516   4.000140   2.279325   3.246580
    36  C    4.908188   3.301237   3.219864   2.259584   3.696420
    37  C    4.144014   2.742356   3.124256   1.436850   3.182018
    38  O    4.668097   4.138921   5.035281   3.308888   4.317798
    39  S    6.764850   5.525449   6.383425   4.691705   5.058367
    40  H    7.213294   6.647696   7.548977   5.767940   6.565637
    41  H    6.931242   6.323498   7.341946   5.749756   5.969335
    42  H    4.487779   2.892974   2.488442   2.217393   3.445371
    43  H    5.698957   3.835153   3.815523   2.930490   3.827172
    44  H    5.508899   4.188928   4.021072   3.074526   4.744032
    45  H    3.940955   3.130938   3.491147   1.847081   3.895779
    46  H    5.622153   3.815786   4.388383   2.932064   3.347107
    47  H    5.980765   6.876839   7.720169   7.524562   6.816571
    48  H    8.402721   7.569170   8.514578   6.805448   7.153170
                   26         27         28         29         30
    26  C    0.000000
    27  H    1.078185   0.000000
    28  C    2.476133   2.690120   0.000000
    29  O    2.895161   2.671257   1.203089   0.000000
    30  N    3.682366   4.043595   1.430619   2.311012   0.000000
    31  H    4.424205   4.587515   2.021760   2.451546   1.025205
    32  H    3.795513   4.281017   2.043941   3.083610   1.024016
    33  C    5.567407   5.525388   6.896104   6.622266   8.108686
    34  C    3.734361   4.042683   4.592280   4.590740   5.624963
    35  C    3.503080   3.875305   3.576227   3.628516   4.439659
    36  C    4.681876   5.240389   3.516495   3.925233   3.510001
    37  C    3.845983   4.485672   3.552037   3.974732   4.010795
    38  O    4.004736   4.496638   5.271034   5.472840   6.241585
    39  S    4.621307   4.526247   5.436306   5.050589   6.615973
    40  H    6.026507   6.157665   7.301222   7.156575   8.406855
    41  H    5.121241   5.077096   6.788969   6.590846   8.055900
    42  H    4.629880   5.274937   3.212207   3.879615   2.832795
    43  H    4.752916   5.100220   3.282991   3.380598   3.377338
    44  H    5.702283   6.282825   4.594132   4.970780   4.467257
    45  H    4.460979   5.211349   4.498162   5.014981   4.874384
    46  H    3.614900   3.724012   3.259528   2.985595   4.196374
    47  H    5.815495   6.135433   8.180549   8.666999   9.093979
    48  H    6.439874   6.266016   7.708629   7.307107   8.953664
                   31         32         33         34         35
    31  H    0.000000
    32  H    1.671342   0.000000
    33  C    8.736840   8.654319   0.000000
    34  C    6.341062   6.163770   2.724319   0.000000
    35  C    5.114182   5.079971   4.036954   1.424211   0.000000
    36  C    4.110453   4.160272   6.428973   3.801796   2.468380
    37  C    4.791255   4.537042   5.172373   2.475096   1.371853
    38  O    7.068260   6.618158   2.815486   1.242017   2.382388
    39  S    7.154887   7.278403   1.797091   1.737628   2.626212
    40  H    9.097525   8.924598   1.090114   2.795563   4.129815
    41  H    8.728715   8.499952   1.088190   2.952453   4.312005
    42  H    3.488788   3.338710   7.250397   4.551445   3.239912
    43  H    3.757540   4.224579   6.419828   3.945718   2.537354
    44  H    5.005370   5.075778   6.825337   4.324318   3.132770
    45  H    5.715871   5.263281   5.222753   2.690667   2.092987
    46  H    4.689217   4.984903   4.338787   2.128609   1.078768
    47  H    9.908340   8.757085   7.790385   7.515266   8.212568
    48  H    9.513249   9.547051   1.090000   3.709423   4.927831
                   36         37         38         39         40
    36  C    0.000000
    37  C    1.497713   0.000000
    38  O    4.430507   2.956208   0.000000
    39  S    4.995497   3.935308   2.611010   0.000000
    40  H    6.356433   5.068093   2.588933   2.375580   0.000000
    41  H    6.747974   5.397911   2.793552   2.377062   1.773085
    42  H    1.084898   2.153843   5.062744   5.841750   7.206052
    43  H    1.085479   2.129319   4.818216   4.806692   6.489724
    44  H    1.088836   2.131662   4.863461   5.485250   6.607104
    45  H    2.193371   1.089980   2.745247   4.297200   4.902361
    46  H    2.670345   2.123347   3.277507   2.651841   4.632737
    47  H    9.725569   8.474789   6.795696   8.238532   8.033689
    48  H    7.295753   6.123410   3.899793   2.425954   1.785106
                   41         42         43         44         45
    41  H    0.000000
    42  H    7.452708   0.000000
    43  H    6.799012   1.751087   0.000000
    44  H    7.254634   1.760337   1.770064   0.000000
    45  H    5.443572   2.746613   3.035568   2.393629   0.000000
    46  H    4.670848   3.428306   2.278575   3.417760   3.041429
    47  H    6.766848   9.664931  10.144551  10.502879   8.401143
    48  H    1.775677   8.159262   7.184915   7.662663   6.218693
                   46         47         48
    46  H    0.000000
    47  H    8.755726   0.000000
    48  H    5.076782   8.500235   0.000000
 Symmetry turned off by external request.
 Stoichiometry    C16H24N2O5S
 Framework group  C1[X(C16H24N2O5S)]
 Deg. of freedom   138
 Full point group                 C1      NOp   1
 Rotational constants (GHZ):           0.2870587           0.1670060           0.1254657
 Leave Link  202 at Sun Apr  9 10:21:22 2023, MaxMem=  2684354560 cpu:               0.1 elap:               0.0
 (Enter /opt/gaussian/g16/l301.exe)
 Standard basis: def2TZVP (5D, 7F)
 Ernie: Thresh=  0.10000D-02 Tol=  0.10000D-05 Strict=F.
   894 basis functions,  1434 primitive gaussians,  1014 cartesian basis functions
    95 alpha electrons       95 beta electrons
       nuclear repulsion energy      2432.9419240099 Hartrees.
 IExCor= 4336 DFT=T Ex+Corr=M062X ExCW=0 ScaHFX=  0.540000
 ScaDFX=  1.000000  1.000000  1.000000  1.000000 ScalE2=  1.000000  1.000000
 IRadAn=      5 IRanWt=     -1 IRanGd=            0 ICorTp=0 IEmpDi=131
 NAtoms=   48 NActive=   48 NUniq=   48 SFac= 1.00D+00 NAtFMM=   60 NAOKFM=F Big=F
 Integral buffers will be    131072 words long.
 Raffenetti 2 integral format.
 Two-electron integral symmetry is turned off.
 R6Disp:  Grimme-D3 Dispersion energy=       -0.0041610328 Hartrees.
 Nuclear repulsion after empirical dispersion term =     2432.9377629771 Hartrees.
 Leave Link  301 at Sun Apr  9 10:21:22 2023, MaxMem=  2684354560 cpu:               0.9 elap:               0.1
 (Enter /opt/gaussian/g16/l302.exe)
 NPDir=0 NMtPBC=     1 NCelOv=     1 NCel=       1 NClECP=     1 NCelD=      1
         NCelK=      1 NCelE2=     1 NClLst=     1 CellRange=     0.0.
 One-electron integrals computed using PRISM.
   1 Symmetry operations used in ECPInt.
 ECPInt:  NShTT=   65703 NPrTT=  200010 LenC2=   56026 LenP2D=  118658.
 LDataN:  DoStor=T MaxTD1= 6 Len=  172
 NBasis=   894 RedAO= T EigKep=  3.28D-05  NBF=   894
 NBsUse=   894 1.00D-06 EigRej= -1.00D+00 NBFU=   894
 Precomputing XC quadrature grid using
 IXCGrd= 4 IRadAn=           5 IRanWt=          -1 IRanGd=           0 AccXCQ= 0.00D+00.
 Generated NRdTot=       0 NPtTot=           0 NUsed=           0 NTot=          32
 NSgBfM=   998   996   996   996   998 MxSgAt=    48 MxSgA2=    48.
 Leave Link  302 at Sun Apr  9 10:21:24 2023, MaxMem=  2684354560 cpu:              36.5 elap:               2.3
 (Enter /opt/gaussian/g16/l303.exe)
 DipDrv:  MaxL=1.
 Leave Link  303 at Sun Apr  9 10:21:24 2023, MaxMem=  2684354560 cpu:               4.4 elap:               0.3
 (Enter /opt/gaussian/g16/l401.exe)
 ExpMin= 9.52D-02 ExpMax= 6.07D+04 ExpMxC= 2.07D+03 IAcc=3 IRadAn=         5 AccDes= 0.00D+00
 Harris functional with IExCor= 1009 and IRadAn=       5 diagonalized for initial guess.
 HarFok:  IExCor= 1009 AccDes= 0.00D+00 IRadAn=         5 IDoV= 1 UseB2=F ITyADJ=14
 ICtDFT=  3500011 ScaDFX=  1.000000  1.000000  1.000000  1.000000
 FoFCou: FMM=F IPFlag=           0 FMFlag=      100000 FMFlg1=           0
         NFxFlg=           0 DoJE=T BraDBF=F KetDBF=T FulRan=T
         wScrn=  0.000000 ICntrl=       500 IOpCl=  0 I1Cent=   200000004 NGrid=           0
         NMat0=    1 NMatS0=      1 NMatT0=    0 NMatD0=    1 NMtDS0=    0 NMtDT0=    0
 Symmetry not used in FoFCou.
 Harris En= -1507.20312838569    
 JPrj=0 DoOrth=F DoCkMO=F.
 Leave Link  401 at Sun Apr  9 10:21:34 2023, MaxMem=  2684354560 cpu:             148.1 elap:               9.3
 (Enter /opt/gaussian/g16/l502.exe)
 Two-electron integral symmetry not used.
 Closed shell SCF:
 Using DIIS extrapolation, IDIIS=  1040.
 NGot=  2684354560 LenX=  2682275214 LenY=  2681246004
 Requested convergence on RMS density matrix=1.00D-08 within 128 cycles.
 Requested convergence on MAX density matrix=1.00D-06.
 Requested convergence on             energy=1.00D-06.
 No special actions if energy rises.
 Fock matrices will be formed incrementally for  20 cycles.
 Integral accuracy reduced to 1.0D-05 until final iterations.

 Cycle   1  Pass 0  IDiag  1:
 FoFJK:  IHMeth= 1 ICntrl=       0 DoSepK=F KAlg= 0 I1Cent=           0 FoldK=F
 IRaf= 780000000 NMat=       1 IRICut=       1 DoRegI=T DoRafI=F ISym2E= 0 IDoP0=0 IntGTp=1.
 FoFCou: FMM=F IPFlag=           0 FMFlag=      100000 FMFlg1=           0
         NFxFlg=           0 DoJE=F BraDBF=F KetDBF=F FulRan=T
         wScrn=  0.000000 ICntrl=         0 IOpCl=  0 I1Cent=           0 NGrid=           0
         NMat0=    1 NMatS0=      1 NMatT0=    0 NMatD0=    1 NMtDS0=    0 NMtDT0=    0
 Symmetry not used in FoFCou.
 E= -1507.09653701154    
 DIIS: error= 1.53D-02 at cycle   1 NSaved=   1.
 NSaved= 1 IEnMin= 1 EnMin= -1507.09653701154     IErMin= 1 ErrMin= 1.53D-02
 ErrMax= 1.53D-02  0.00D+00 EMaxC= 1.00D-01 BMatC= 1.01D+00 BMatP= 1.01D+00
 IDIUse=3 WtCom= 8.47D-01 WtEn= 1.53D-01
 Coeff-Com:  0.100D+01
 Coeff-En:   0.100D+01
 Coeff:      0.100D+01
 Gap=     0.265 Goal=   None    Shift=    0.000
 GapD=    0.265 DampG=1.000 DampE=0.500 DampFc=0.5000 IDamp=-1.
 Damping current iteration by 5.00D-01
 RMSDP=3.46D-03 MaxDP=7.99D-01              OVMax= 2.43D-01

 Cycle   2  Pass 0  IDiag  1:
 RMSU=  1.73D-03    CP:  1.01D+00
 E= -1507.43647533444     Delta-E=       -0.339938322900 Rises=F Damp=T
 DIIS: error= 4.04D-03 at cycle   2 NSaved=   2.
 NSaved= 2 IEnMin= 2 EnMin= -1507.43647533444     IErMin= 2 ErrMin= 4.04D-03
 ErrMax= 4.04D-03  0.00D+00 EMaxC= 1.00D-01 BMatC= 9.27D-02 BMatP= 1.01D+00
 IDIUse=3 WtCom= 9.60D-01 WtEn= 4.04D-02
 Coeff-Com:  0.114D-01 0.989D+00
 Coeff-En:   0.736D-01 0.926D+00
 Coeff:      0.140D-01 0.986D+00
 Gap=     0.300 Goal=   None    Shift=    0.000
 RMSDP=1.17D-03 MaxDP=2.55D-01 DE=-3.40D-01 OVMax= 2.09D-01

 Cycle   3  Pass 0  IDiag  1:
 RMSU=  1.02D-03    CP:  9.93D-01  6.73D-01
 E= -1507.81405584047     Delta-E=       -0.377580506026 Rises=F Damp=F
 DIIS: error= 4.79D-03 at cycle   3 NSaved=   3.
 NSaved= 3 IEnMin= 3 EnMin= -1507.81405584047     IErMin= 2 ErrMin= 4.04D-03
 ErrMax= 4.79D-03  0.00D+00 EMaxC= 1.00D-01 BMatC= 5.57D-02 BMatP= 9.27D-02
 IDIUse=3 WtCom= 9.52D-01 WtEn= 4.79D-02
 Coeff-Com: -0.730D-01 0.449D+00 0.624D+00
 Coeff-En:   0.000D+00 0.000D+00 0.100D+01
 Coeff:     -0.695D-01 0.428D+00 0.642D+00
 Gap=     0.194 Goal=   None    Shift=    0.000
 RMSDP=3.82D-04 MaxDP=2.74D-02 DE=-3.78D-01 OVMax= 9.10D-02

 Cycle   4  Pass 0  IDiag  1:
 RMSU=  3.38D-04    CP:  9.94D-01  7.59D-01  9.09D-01
 E= -1507.85239694894     Delta-E=       -0.038341108469 Rises=F Damp=F
 DIIS: error= 2.50D-03 at cycle   4 NSaved=   4.
 NSaved= 4 IEnMin= 4 EnMin= -1507.85239694894     IErMin= 4 ErrMin= 2.50D-03
 ErrMax= 2.50D-03  0.00D+00 EMaxC= 1.00D-01 BMatC= 1.14D-02 BMatP= 5.57D-02
 IDIUse=3 WtCom= 9.75D-01 WtEn= 2.50D-02
 Coeff-Com: -0.338D-01 0.944D-01 0.348D+00 0.592D+00
 Coeff-En:   0.000D+00 0.000D+00 0.139D+00 0.861D+00
 Coeff:     -0.329D-01 0.920D-01 0.342D+00 0.598D+00
 Gap=     0.191 Goal=   None    Shift=    0.000
 RMSDP=1.34D-04 MaxDP=1.09D-02 DE=-3.83D-02 OVMax= 1.79D-02

 Cycle   5  Pass 0  IDiag  1:
 RMSU=  8.75D-05    CP:  9.94D-01  7.52D-01  9.45D-01  7.24D-01
 E= -1507.86116125646     Delta-E=       -0.008764307523 Rises=F Damp=F
 DIIS: error= 4.87D-04 at cycle   5 NSaved=   5.
 NSaved= 5 IEnMin= 5 EnMin= -1507.86116125646     IErMin= 5 ErrMin= 4.87D-04
 ErrMax= 4.87D-04  0.00D+00 EMaxC= 1.00D-01 BMatC= 5.16D-04 BMatP= 1.14D-02
 IDIUse=3 WtCom= 9.95D-01 WtEn= 4.87D-03
 Coeff-Com: -0.961D-02 0.158D-01 0.124D+00 0.274D+00 0.596D+00
 Coeff-En:   0.000D+00 0.000D+00 0.000D+00 0.000D+00 0.100D+01
 Coeff:     -0.957D-02 0.157D-01 0.123D+00 0.273D+00 0.598D+00
 Gap=     0.192 Goal=   None    Shift=    0.000
 RMSDP=4.57D-05 MaxDP=8.00D-03 DE=-8.76D-03 OVMax= 5.87D-03

 Cycle   6  Pass 0  IDiag  1:
 RMSU=  3.49D-05    CP:  9.93D-01  7.38D-01  9.57D-01  7.47D-01  8.88D-01
 E= -1507.86160111270     Delta-E=       -0.000439856239 Rises=F Damp=F
 DIIS: error= 1.69D-04 at cycle   6 NSaved=   6.
 NSaved= 6 IEnMin= 6 EnMin= -1507.86160111270     IErMin= 6 ErrMin= 1.69D-04
 ErrMax= 1.69D-04  0.00D+00 EMaxC= 1.00D-01 BMatC= 7.09D-05 BMatP= 5.16D-04
 IDIUse=3 WtCom= 9.98D-01 WtEn= 1.69D-03
 Coeff-Com:  0.733D-03-0.594D-02 0.109D-01 0.385D-01 0.274D+00 0.682D+00
 Coeff-En:   0.000D+00 0.000D+00 0.000D+00 0.000D+00 0.000D+00 0.100D+01
 Coeff:      0.732D-03-0.593D-02 0.109D-01 0.384D-01 0.273D+00 0.683D+00
 Gap=     0.193 Goal=   None    Shift=    0.000
 RMSDP=2.12D-05 MaxDP=1.22D-03 DE=-4.40D-04 OVMax= 4.23D-03

 Cycle   7  Pass 0  IDiag  1:
 RMSU=  1.80D-05    CP:  9.93D-01  7.37D-01  9.62D-01  7.54D-01  9.90D-01
                    CP:  9.69D-01
 E= -1507.86169456799     Delta-E=       -0.000093455291 Rises=F Damp=F
 DIIS: error= 6.87D-05 at cycle   7 NSaved=   7.
 NSaved= 7 IEnMin= 7 EnMin= -1507.86169456799     IErMin= 7 ErrMin= 6.87D-05
 ErrMax= 6.87D-05  0.00D+00 EMaxC= 1.00D-01 BMatC= 1.32D-05 BMatP= 7.09D-05
 IDIUse=1 WtCom= 1.00D+00 WtEn= 0.00D+00
 Coeff-Com:  0.206D-02-0.568D-02-0.139D-01-0.302D-01 0.178D-01 0.308D+00
 Coeff-Com:  0.721D+00
 Coeff:      0.206D-02-0.568D-02-0.139D-01-0.302D-01 0.178D-01 0.308D+00
 Coeff:      0.721D+00
 Gap=     0.193 Goal=   None    Shift=    0.000
 RMSDP=1.58D-05 MaxDP=2.66D-03 DE=-9.35D-05 OVMax= 2.71D-03

 Cycle   8  Pass 0  IDiag  1:
 RMSU=  9.99D-06    CP:  9.93D-01  7.32D-01  9.64D-01  7.59D-01  1.05D+00
                    CP:  1.17D+00  1.13D+00
 E= -1507.86171148721     Delta-E=       -0.000016919219 Rises=F Damp=F
 DIIS: error= 3.02D-05 at cycle   8 NSaved=   8.
 NSaved= 8 IEnMin= 8 EnMin= -1507.86171148721     IErMin= 8 ErrMin= 3.02D-05
 ErrMax= 3.02D-05  0.00D+00 EMaxC= 1.00D-01 BMatC= 2.62D-06 BMatP= 1.32D-05
 IDIUse=1 WtCom= 1.00D+00 WtEn= 0.00D+00
 Coeff-Com:  0.919D-03-0.163D-02-0.831D-02-0.244D-01-0.480D-01 0.101D-01
 Coeff-Com:  0.342D+00 0.729D+00
 Coeff:      0.919D-03-0.163D-02-0.831D-02-0.244D-01-0.480D-01 0.101D-01
 Coeff:      0.342D+00 0.729D+00
 Gap=     0.193 Goal=   None    Shift=    0.000
 RMSDP=1.34D-05 MaxDP=1.15D-03 DE=-1.69D-05 OVMax= 9.97D-04

 Cycle   9  Pass 0  IDiag  1:
 RMSU=  7.26D-06    CP:  9.92D-01  7.30D-01  9.65D-01  7.59D-01  1.09D+00
                    CP:  1.29D+00  1.45D+00  1.64D+00
 E= -1507.86170809665     Delta-E=        0.000003390561 Rises=F Damp=F
 DIIS: error= 1.87D-05 at cycle   9 NSaved=   9.
 NSaved= 9 IEnMin= 8 EnMin= -1507.86171148721     IErMin= 9 ErrMin= 1.87D-05
 ErrMax= 1.87D-05  0.00D+00 EMaxC= 1.00D-01 BMatC= 4.10D-07 BMatP= 2.62D-06
 IDIUse=1 WtCom= 1.00D+00 WtEn= 0.00D+00
 Coeff-Com:  0.169D-03-0.956D-04-0.154D-02-0.721D-02-0.206D-01-0.263D-01
 Coeff-Com:  0.629D-01 0.303D+00 0.690D+00
 Coeff:      0.169D-03-0.956D-04-0.154D-02-0.721D-02-0.206D-01-0.263D-01
 Coeff:      0.629D-01 0.303D+00 0.690D+00
 Gap=     0.193 Goal=   None    Shift=    0.000
 RMSDP=1.44D-05 MaxDP=1.16D-03 DE= 3.39D-06 OVMax= 3.10D-04

 Cycle  10  Pass 0  IDiag  1:
 RMSU=  4.94D-06    CP:  9.92D-01  7.28D-01  9.65D-01  7.59D-01  1.12D+00
                    CP:  1.37D+00  1.74D+00  2.51D+00  2.06D+00
 E= -1507.86169610397     Delta-E=        0.000011992674 Rises=F Damp=F
 DIIS: error= 2.58D-05 at cycle  10 NSaved=  10.
 NSaved=10 IEnMin= 8 EnMin= -1507.86171148721     IErMin= 9 ErrMin= 1.87D-05
 ErrMax= 2.58D-05  0.00D+00 EMaxC= 1.00D-01 BMatC= 3.26D-07 BMatP= 4.10D-07
 IDIUse=1 WtCom= 1.00D+00 WtEn= 0.00D+00
 Coeff-Com:  0.127D-03-0.613D-04-0.112D-02-0.562D-02-0.163D-01-0.220D-01
 Coeff-Com:  0.461D-01 0.239D+00 0.570D+00 0.190D+00
 Coeff:      0.127D-03-0.613D-04-0.112D-02-0.562D-02-0.163D-01-0.220D-01
 Coeff:      0.461D-01 0.239D+00 0.570D+00 0.190D+00
 Gap=     0.193 Goal=   None    Shift=    0.000
 RMSDP=5.53D-06 MaxDP=4.14D-04 DE= 1.20D-05 OVMax= 2.49D-05

 Initial convergence to 1.0D-05 achieved.  Increase integral accuracy.
 Cycle  11  Pass 1  IDiag  1:
 E= -1507.86166828923     Delta-E=        0.000027814741 Rises=F Damp=F
 DIIS: error= 3.14D-04 at cycle   1 NSaved=   1.
 NSaved= 1 IEnMin= 1 EnMin= -1507.86166828923     IErMin= 1 ErrMin= 3.14D-04
 ErrMax= 3.14D-04  0.00D+00 EMaxC= 1.00D-01 BMatC= 7.92D-05 BMatP= 7.92D-05
 IDIUse=3 WtCom= 9.97D-01 WtEn= 3.14D-03
 Coeff-Com:  0.100D+01
 Coeff-En:   0.100D+01
 Coeff:      0.100D+01
 Gap=     0.193 Goal=   None    Shift=    0.000
 RMSDP=5.53D-06 MaxDP=4.14D-04 DE= 2.78D-05 OVMax= 7.54D-04

 Cycle  12  Pass 1  IDiag  1:
 RMSU=  3.81D-04    CP:  9.98D-01
 E= -1507.86171768418     Delta-E=       -0.000049394952 Rises=F Damp=F
 DIIS: error= 6.72D-06 at cycle   2 NSaved=   2.
 NSaved= 2 IEnMin= 2 EnMin= -1507.86171768418     IErMin= 2 ErrMin= 6.72D-06
 ErrMax= 6.72D-06  0.00D+00 EMaxC= 1.00D-01 BMatC= 9.06D-08 BMatP= 7.92D-05
 IDIUse=1 WtCom= 1.00D+00 WtEn= 0.00D+00
 Coeff-Com: -0.159D-01 0.102D+01
 Coeff:     -0.159D-01 0.102D+01
 Gap=     0.193 Goal=   None    Shift=    0.000
 RMSDP=1.40D-05 MaxDP=1.26D-03 DE=-4.94D-05 OVMax= 2.23D-04

 Cycle  13  Pass 1  IDiag  1:
 RMSU=  5.03D-06    CP:  9.98D-01  1.03D+00
 E= -1507.86171769865     Delta-E=       -0.000000014462 Rises=F Damp=F
 DIIS: error= 7.47D-06 at cycle   3 NSaved=   3.
 NSaved= 3 IEnMin= 3 EnMin= -1507.86171769865     IErMin= 2 ErrMin= 6.72D-06
 ErrMax= 7.47D-06  0.00D+00 EMaxC= 1.00D-01 BMatC= 1.10D-07 BMatP= 9.06D-08
 IDIUse=1 WtCom= 1.00D+00 WtEn= 0.00D+00
 Coeff-Com: -0.968D-02 0.571D+00 0.439D+00
 Coeff:     -0.968D-02 0.571D+00 0.439D+00
 Gap=     0.193 Goal=   None    Shift=    0.000
 RMSDP=5.76D-07 MaxDP=3.24D-05 DE=-1.45D-08 OVMax= 1.10D-04

 Cycle  14  Pass 1  IDiag  1:
 RMSU=  5.45D-07    CP:  9.98D-01  1.03D+00  1.01D+00
 E= -1507.86171780277     Delta-E=       -0.000000104123 Rises=F Damp=F
 DIIS: error= 1.28D-06 at cycle   4 NSaved=   4.
 NSaved= 4 IEnMin= 4 EnMin= -1507.86171780277     IErMin= 4 ErrMin= 1.28D-06
 ErrMax= 1.28D-06  0.00D+00 EMaxC= 1.00D-01 BMatC= 3.63D-09 BMatP= 9.06D-08
 IDIUse=1 WtCom= 1.00D+00 WtEn= 0.00D+00
 Coeff-Com: -0.889D-03 0.406D-01 0.145D+00 0.816D+00
 Coeff:     -0.889D-03 0.406D-01 0.145D+00 0.816D+00
 Gap=     0.193 Goal=   None    Shift=    0.000
 RMSDP=3.44D-07 MaxDP=2.36D-05 DE=-1.04D-07 OVMax= 2.64D-05

 Cycle  15  Pass 1  IDiag  1:
 RMSU=  1.66D-07    CP:  9.98D-01  1.04D+00  1.05D+00  1.03D+00
 E= -1507.86171780602     Delta-E=       -0.000000003253 Rises=F Damp=F
 DIIS: error= 7.87D-07 at cycle   5 NSaved=   5.
 NSaved= 5 IEnMin= 5 EnMin= -1507.86171780602     IErMin= 5 ErrMin= 7.87D-07
 ErrMax= 7.87D-07  0.00D+00 EMaxC= 1.00D-01 BMatC= 1.14D-09 BMatP= 3.63D-09
 IDIUse=1 WtCom= 1.00D+00 WtEn= 0.00D+00
 Coeff-Com:  0.563D-03-0.394D-01 0.295D-01 0.446D+00 0.564D+00
 Coeff:      0.563D-03-0.394D-01 0.295D-01 0.446D+00 0.564D+00
 Gap=     0.193 Goal=   None    Shift=    0.000
 RMSDP=8.27D-08 MaxDP=6.13D-06 DE=-3.25D-09 OVMax= 1.74D-05

 Cycle  16  Pass 1  IDiag  1:
 RMSU=  5.60D-08    CP:  9.98D-01  1.04D+00  1.06D+00  1.05D+00  1.04D+00
 E= -1507.86171780723     Delta-E=       -0.000000001212 Rises=F Damp=F
 DIIS: error= 1.78D-07 at cycle   6 NSaved=   6.
 NSaved= 6 IEnMin= 6 EnMin= -1507.86171780723     IErMin= 6 ErrMin= 1.78D-07
 ErrMax= 1.78D-07  0.00D+00 EMaxC= 1.00D-01 BMatC= 7.17D-11 BMatP= 1.14D-09
 IDIUse=1 WtCom= 1.00D+00 WtEn= 0.00D+00
 Coeff-Com:  0.293D-03-0.184D-01-0.659D-02 0.735D-01 0.209D+00 0.742D+00
 Coeff:      0.293D-03-0.184D-01-0.659D-02 0.735D-01 0.209D+00 0.742D+00
 Gap=     0.193 Goal=   None    Shift=    0.000
 RMSDP=2.98D-08 MaxDP=3.24D-06 DE=-1.21D-09 OVMax= 3.34D-06

 Cycle  17  Pass 1  IDiag  1:
 RMSU=  1.81D-08    CP:  9.98D-01  1.04D+00  1.06D+00  1.07D+00  1.17D+00
                    CP:  1.06D+00
 E= -1507.86171780732     Delta-E=       -0.000000000090 Rises=F Damp=F
 DIIS: error= 8.15D-08 at cycle   7 NSaved=   7.
 NSaved= 7 IEnMin= 7 EnMin= -1507.86171780732     IErMin= 7 ErrMin= 8.15D-08
 ErrMax= 8.15D-08  0.00D+00 EMaxC= 1.00D-01 BMatC= 1.78D-11 BMatP= 7.17D-11
 IDIUse=1 WtCom= 1.00D+00 WtEn= 0.00D+00
 Coeff-Com: -0.156D-04 0.217D-02-0.129D-01-0.886D-01-0.362D-01 0.371D+00
 Coeff-Com:  0.764D+00
 Coeff:     -0.156D-04 0.217D-02-0.129D-01-0.886D-01-0.362D-01 0.371D+00
 Coeff:      0.764D+00
 Gap=     0.193 Goal=   None    Shift=    0.000
 RMSDP=1.65D-08 MaxDP=1.37D-06 DE=-9.05D-11 OVMax= 4.89D-06

 Cycle  18  Pass 1  IDiag  1:
 RMSU=  1.07D-08    CP:  9.98D-01  1.04D+00  1.06D+00  1.07D+00  1.22D+00
                    CP:  1.19D+00  1.18D+00
 E= -1507.86171780737     Delta-E=       -0.000000000042 Rises=F Damp=F
 DIIS: error= 2.77D-08 at cycle   8 NSaved=   8.
 NSaved= 8 IEnMin= 8 EnMin= -1507.86171780737     IErMin= 8 ErrMin= 2.77D-08
 ErrMax= 2.77D-08  0.00D+00 EMaxC= 1.00D-01 BMatC= 2.72D-12 BMatP= 1.78D-11
 IDIUse=1 WtCom= 1.00D+00 WtEn= 0.00D+00
 Coeff-Com: -0.399D-04 0.303D-02-0.526D-02-0.469D-01-0.373D-01 0.621D-01
 Coeff-Com:  0.353D+00 0.671D+00
 Coeff:     -0.399D-04 0.303D-02-0.526D-02-0.469D-01-0.373D-01 0.621D-01
 Coeff:      0.353D+00 0.671D+00
 Gap=     0.193 Goal=   None    Shift=    0.000
 RMSDP=4.81D-09 MaxDP=4.70D-07 DE=-4.23D-11 OVMax= 8.42D-07

 SCF Done:  E(RM062X) =  -1507.86171781     A.U. after   18 cycles
            NFock= 18  Conv=0.48D-08     -V/T= 2.0038
 KE= 1.502088729182D+03 PE=-8.404561946360D+03 EE= 2.961673736394D+03
 Leave Link  502 at Sun Apr  9 10:40:26 2023, MaxMem=  2684354560 cpu:           18112.0 elap:            1132.3
 (Enter /opt/gaussian/g16/l601.exe)
 Copying SCF densities to generalized density rwf, IOpCl= 0 IROHF=0.

 **********************************************************************

            Population analysis using the SCF density.

 **********************************************************************

 Alpha  occ. eigenvalues --  -89.89451 -19.64640 -19.63726 -19.62163 -19.60779
 Alpha  occ. eigenvalues --  -19.59944 -14.80996 -14.76942 -10.65525 -10.63942
 Alpha  occ. eigenvalues --  -10.62841 -10.60413 -10.60378 -10.60304 -10.59868
 Alpha  occ. eigenvalues --  -10.58369 -10.56185 -10.55832 -10.55174 -10.54279
 Alpha  occ. eigenvalues --  -10.54198 -10.54111 -10.52669 -10.52466  -8.25443
 Alpha  occ. eigenvalues --   -6.17382  -6.17156  -6.16958  -1.19492  -1.17661
 Alpha  occ. eigenvalues --   -1.16433  -1.14648  -1.13900  -1.09804  -1.00799
 Alpha  occ. eigenvalues --   -0.93485  -0.90934  -0.88803  -0.88564  -0.88043
 Alpha  occ. eigenvalues --   -0.86289  -0.81033  -0.79221  -0.75904  -0.74226
 Alpha  occ. eigenvalues --   -0.73686  -0.70636  -0.68437  -0.66474  -0.66266
 Alpha  occ. eigenvalues --   -0.64240  -0.62940  -0.60250  -0.59785  -0.59547
 Alpha  occ. eigenvalues --   -0.58465  -0.57329  -0.55835  -0.54653  -0.54213
 Alpha  occ. eigenvalues --   -0.53843  -0.53070  -0.52387  -0.51930  -0.51219
 Alpha  occ. eigenvalues --   -0.50968  -0.49666  -0.49387  -0.49045  -0.48748
 Alpha  occ. eigenvalues --   -0.48447  -0.47890  -0.46465  -0.46062  -0.45703
 Alpha  occ. eigenvalues --   -0.45458  -0.44878  -0.44013  -0.43706  -0.43365
 Alpha  occ. eigenvalues --   -0.42889  -0.42607  -0.41571  -0.39273  -0.38467
 Alpha  occ. eigenvalues --   -0.36767  -0.36577  -0.35494  -0.34838  -0.33853
 Alpha  occ. eigenvalues --   -0.32986  -0.31563  -0.31012  -0.29168  -0.23001
 Alpha virt. eigenvalues --   -0.03687  -0.00557   0.04659   0.05093   0.06022
 Alpha virt. eigenvalues --    0.06134   0.06755   0.07873   0.08283   0.08613
 Alpha virt. eigenvalues --    0.09023   0.09761   0.10200   0.11000   0.11259
 Alpha virt. eigenvalues --    0.11815   0.12275   0.12816   0.13309   0.13667
 Alpha virt. eigenvalues --    0.13821   0.14368   0.14618   0.14917   0.15294
 Alpha virt. eigenvalues --    0.15487   0.16294   0.16524   0.17320   0.18035
 Alpha virt. eigenvalues --    0.18554   0.18863   0.19208   0.19650   0.19972
 Alpha virt. eigenvalues --    0.20727   0.21036   0.21574   0.21697   0.22241
 Alpha virt. eigenvalues --    0.22537   0.23314   0.23654   0.24632   0.24723
 Alpha virt. eigenvalues --    0.24918   0.25382   0.25823   0.26235   0.26534
 Alpha virt. eigenvalues --    0.27146   0.28080   0.28135   0.28410   0.28636
 Alpha virt. eigenvalues --    0.29206   0.29660   0.30157   0.30573   0.31463
 Alpha virt. eigenvalues --    0.31803   0.31979   0.32520   0.32916   0.33043
 Alpha virt. eigenvalues --    0.33297   0.34336   0.34670   0.35143   0.35923
 Alpha virt. eigenvalues --    0.36354   0.36615   0.37141   0.37726   0.38001
 Alpha virt. eigenvalues --    0.38695   0.39505   0.39717   0.40043   0.40220
 Alpha virt. eigenvalues --    0.40759   0.40890   0.41585   0.41871   0.42153
 Alpha virt. eigenvalues --    0.42574   0.42701   0.43579   0.43679   0.43893
 Alpha virt. eigenvalues --    0.44519   0.45000   0.45197   0.45488   0.45568
 Alpha virt. eigenvalues --    0.46112   0.46441   0.46839   0.46979   0.47410
 Alpha virt. eigenvalues --    0.47875   0.48277   0.48865   0.49102   0.49596
 Alpha virt. eigenvalues --    0.49817   0.50114   0.50267   0.50373   0.51006
 Alpha virt. eigenvalues --    0.51207   0.51338   0.51647   0.52427   0.52608
 Alpha virt. eigenvalues --    0.52918   0.53135   0.53611   0.53703   0.54649
 Alpha virt. eigenvalues --    0.54975   0.55293   0.55797   0.56111   0.56820
 Alpha virt. eigenvalues --    0.57571   0.58091   0.58648   0.58936   0.59438
 Alpha virt. eigenvalues --    0.59741   0.60045   0.60654   0.61650   0.62326
 Alpha virt. eigenvalues --    0.62884   0.63093   0.63411   0.63936   0.64815
 Alpha virt. eigenvalues --    0.65173   0.65898   0.67166   0.67494   0.68159
 Alpha virt. eigenvalues --    0.68427   0.69383   0.69456   0.69590   0.70801
 Alpha virt. eigenvalues --    0.71386   0.72190   0.72536   0.72929   0.73943
 Alpha virt. eigenvalues --    0.74415   0.74791   0.74883   0.77638   0.77934
 Alpha virt. eigenvalues --    0.78515   0.78793   0.79781   0.80722   0.81011
 Alpha virt. eigenvalues --    0.81202   0.82236   0.82776   0.83169   0.83782
 Alpha virt. eigenvalues --    0.84910   0.85068   0.85466   0.86577   0.87135
 Alpha virt. eigenvalues --    0.87513   0.88276   0.88339   0.89770   0.89913
 Alpha virt. eigenvalues --    0.91000   0.91453   0.92214   0.92477   0.93404
 Alpha virt. eigenvalues --    0.94091   0.94631   0.95554   0.96219   0.97135
 Alpha virt. eigenvalues --    0.97656   0.97972   0.98271   0.99170   0.99621
 Alpha virt. eigenvalues --    0.99875   1.00404   1.01970   1.02530   1.03651
 Alpha virt. eigenvalues --    1.03728   1.04783   1.05061   1.05454   1.05873
 Alpha virt. eigenvalues --    1.06321   1.07502   1.08412   1.08882   1.09721
 Alpha virt. eigenvalues --    1.10056   1.11098   1.12047   1.12541   1.12655
 Alpha virt. eigenvalues --    1.13279   1.13818   1.14601   1.15476   1.15980
 Alpha virt. eigenvalues --    1.16385   1.17391   1.17846   1.18950   1.19699
 Alpha virt. eigenvalues --    1.21218   1.21703   1.21914   1.22259   1.23100
 Alpha virt. eigenvalues --    1.23753   1.25850   1.26592   1.27201   1.27650
 Alpha virt. eigenvalues --    1.28421   1.28827   1.30126   1.30701   1.31229
 Alpha virt. eigenvalues --    1.31844   1.33601   1.34036   1.34424   1.35785
 Alpha virt. eigenvalues --    1.36127   1.37265   1.38006   1.39088   1.39792
 Alpha virt. eigenvalues --    1.40441   1.41010   1.41759   1.42178   1.43535
 Alpha virt. eigenvalues --    1.44800   1.45416   1.46422   1.49232   1.49782
 Alpha virt. eigenvalues --    1.50474   1.51269   1.52203   1.52367   1.53443
 Alpha virt. eigenvalues --    1.53544   1.55013   1.55343   1.55647   1.56163
 Alpha virt. eigenvalues --    1.56483   1.56814   1.57022   1.57546   1.57799
 Alpha virt. eigenvalues --    1.58165   1.58843   1.59342   1.60019   1.60317
 Alpha virt. eigenvalues --    1.60715   1.61336   1.61724   1.62282   1.62870
 Alpha virt. eigenvalues --    1.63152   1.63259   1.63811   1.64981   1.65629
 Alpha virt. eigenvalues --    1.65926   1.66503   1.66855   1.67371   1.68669
 Alpha virt. eigenvalues --    1.69245   1.69976   1.70096   1.70645   1.71436
 Alpha virt. eigenvalues --    1.71899   1.72996   1.73385   1.73857   1.74593
 Alpha virt. eigenvalues --    1.75174   1.76544   1.77171   1.77887   1.78343
 Alpha virt. eigenvalues --    1.79060   1.79700   1.79899   1.80910   1.81891
 Alpha virt. eigenvalues --    1.82369   1.82862   1.83247   1.84322   1.84751
 Alpha virt. eigenvalues --    1.85616   1.86384   1.87138   1.87602   1.88755
 Alpha virt. eigenvalues --    1.89287   1.89635   1.89922   1.90602   1.91405
 Alpha virt. eigenvalues --    1.91704   1.92535   1.93471   1.94199   1.94398
 Alpha virt. eigenvalues --    1.94935   1.95457   1.96748   1.97716   1.97739
 Alpha virt. eigenvalues --    1.98755   1.98810   2.00019   2.00239   2.01606
 Alpha virt. eigenvalues --    2.02270   2.02739   2.03654   2.04690   2.05424
 Alpha virt. eigenvalues --    2.05939   2.06446   2.07144   2.08366   2.08642
 Alpha virt. eigenvalues --    2.09507   2.09708   2.10442   2.11526   2.12115
 Alpha virt. eigenvalues --    2.12712   2.13149   2.13895   2.14204   2.15433
 Alpha virt. eigenvalues --    2.15717   2.16173   2.17139   2.18864   2.19479
 Alpha virt. eigenvalues --    2.20152   2.20423   2.20778   2.21462   2.22517
 Alpha virt. eigenvalues --    2.23289   2.24424   2.25333   2.25708   2.26584
 Alpha virt. eigenvalues --    2.26639   2.26989   2.28580   2.28998   2.29161
 Alpha virt. eigenvalues --    2.29700   2.29952   2.30633   2.31183   2.31912
 Alpha virt. eigenvalues --    2.32943   2.33581   2.33710   2.34704   2.35360
 Alpha virt. eigenvalues --    2.35993   2.37023   2.38079   2.38964   2.39363
 Alpha virt. eigenvalues --    2.40375   2.42078   2.42590   2.43461   2.44078
 Alpha virt. eigenvalues --    2.44891   2.45419   2.45887   2.46768   2.47304
 Alpha virt. eigenvalues --    2.48328   2.48891   2.50241   2.50306   2.51178
 Alpha virt. eigenvalues --    2.51489   2.53843   2.54334   2.54696   2.55744
 Alpha virt. eigenvalues --    2.56344   2.56935   2.57339   2.57916   2.58576
 Alpha virt. eigenvalues --    2.59079   2.59407   2.60152   2.60596   2.61692
 Alpha virt. eigenvalues --    2.62206   2.62542   2.63995   2.64232   2.64971
 Alpha virt. eigenvalues --    2.66009   2.66475   2.66672   2.68136   2.68671
 Alpha virt. eigenvalues --    2.69075   2.69447   2.70382   2.70743   2.71425
 Alpha virt. eigenvalues --    2.72168   2.72442   2.73028   2.73580   2.74437
 Alpha virt. eigenvalues --    2.75228   2.75610   2.77410   2.78087   2.78761
 Alpha virt. eigenvalues --    2.79503   2.79753   2.80042   2.80613   2.81543
 Alpha virt. eigenvalues --    2.82209   2.82914   2.83535   2.83944   2.85083
 Alpha virt. eigenvalues --    2.85760   2.86343   2.87633   2.87779   2.88524
 Alpha virt. eigenvalues --    2.89268   2.90545   2.91143   2.91567   2.93881
 Alpha virt. eigenvalues --    2.94235   2.94379   2.94761   2.96076   2.96453
 Alpha virt. eigenvalues --    2.97368   2.98478   2.98743   2.99207   3.00248
 Alpha virt. eigenvalues --    3.00792   3.01588   3.01925   3.02042   3.02752
 Alpha virt. eigenvalues --    3.03869   3.04116   3.05898   3.06246   3.07238
 Alpha virt. eigenvalues --    3.07805   3.08422   3.09156   3.09721   3.09932
 Alpha virt. eigenvalues --    3.10794   3.11454   3.12059   3.12506   3.13342
 Alpha virt. eigenvalues --    3.13643   3.14651   3.14965   3.15932   3.16339
 Alpha virt. eigenvalues --    3.16907   3.17643   3.18670   3.19085   3.19483
 Alpha virt. eigenvalues --    3.19976   3.20181   3.20445   3.22294   3.22999
 Alpha virt. eigenvalues --    3.23396   3.23733   3.24634   3.25005   3.25139
 Alpha virt. eigenvalues --    3.25625   3.26674   3.26898   3.27567   3.28022
 Alpha virt. eigenvalues --    3.29568   3.30204   3.30600   3.31148   3.31604
 Alpha virt. eigenvalues --    3.31919   3.32669   3.33425   3.34100   3.34485
 Alpha virt. eigenvalues --    3.35061   3.35438   3.36436   3.36666   3.37216
 Alpha virt. eigenvalues --    3.37907   3.37998   3.38697   3.38834   3.39949
 Alpha virt. eigenvalues --    3.39980   3.41096   3.41418   3.42198   3.42505
 Alpha virt. eigenvalues --    3.42672   3.43225   3.44198   3.44274   3.45806
 Alpha virt. eigenvalues --    3.46558   3.47025   3.47400   3.48456   3.49129
 Alpha virt. eigenvalues --    3.49256   3.50301   3.50780   3.51216   3.51935
 Alpha virt. eigenvalues --    3.53473   3.54178   3.55071   3.56298   3.56571
 Alpha virt. eigenvalues --    3.57520   3.57967   3.59054   3.59578   3.60871
 Alpha virt. eigenvalues --    3.61108   3.62001   3.62828   3.64001   3.64687
 Alpha virt. eigenvalues --    3.66198   3.67462   3.68434   3.69379   3.70103
 Alpha virt. eigenvalues --    3.70968   3.71158   3.71880   3.73496   3.74879
 Alpha virt. eigenvalues --    3.75422   3.76141   3.76695   3.77596   3.77836
 Alpha virt. eigenvalues --    3.80209   3.81366   3.82339   3.82669   3.83269
 Alpha virt. eigenvalues --    3.83660   3.85666   3.86931   3.88660   3.90481
 Alpha virt. eigenvalues --    3.90963   3.91110   3.91947   3.92736   3.93757
 Alpha virt. eigenvalues --    3.94721   3.95844   3.96580   3.98391   3.99203
 Alpha virt. eigenvalues --    4.00634   4.01059   4.02772   4.04564   4.06416
 Alpha virt. eigenvalues --    4.07738   4.09925   4.10012   4.10678   4.11219
 Alpha virt. eigenvalues --    4.11670   4.12515   4.14626   4.14864   4.16458
 Alpha virt. eigenvalues --    4.19400   4.20867   4.22292   4.23417   4.24166
 Alpha virt. eigenvalues --    4.26474   4.27599   4.27736   4.28821   4.29781
 Alpha virt. eigenvalues --    4.30623   4.32277   4.32840   4.34679   4.39012
 Alpha virt. eigenvalues --    4.39739   4.40738   4.41796   4.42322   4.42721
 Alpha virt. eigenvalues --    4.45073   4.46241   4.46939   4.48567   4.49711
 Alpha virt. eigenvalues --    4.50994   4.51202   4.52119   4.54886   4.56198
 Alpha virt. eigenvalues --    4.58990   4.63452   4.65473   4.67017   4.68593
 Alpha virt. eigenvalues --    4.70554   4.73088   4.74932   4.75750   4.77052
 Alpha virt. eigenvalues --    4.78123   4.78296   4.81363   4.83048   4.83406
 Alpha virt. eigenvalues --    4.84799   4.85950   4.88778   4.90254   4.90772
 Alpha virt. eigenvalues --    4.91537   4.93129   4.93770   4.95058   4.96163
 Alpha virt. eigenvalues --    4.97901   4.98404   5.00022   5.01789   5.03530
 Alpha virt. eigenvalues --    5.07958   5.09626   5.12985   5.14908   5.18943
 Alpha virt. eigenvalues --    5.20951   5.23458   5.24268   5.25288   5.25789
 Alpha virt. eigenvalues --    5.26691   5.29542   5.30475   5.31362   5.36511
 Alpha virt. eigenvalues --    5.39705   5.42478   5.44844   5.45302   5.47548
 Alpha virt. eigenvalues --    5.49590   5.50287   5.52606   5.55745   5.57141
 Alpha virt. eigenvalues --    5.62393   5.62696   5.72287   5.75399   5.76797
 Alpha virt. eigenvalues --    5.78447   5.79234   5.82487   5.82986   5.84361
 Alpha virt. eigenvalues --    5.85547   5.86811   5.88159   5.91358   5.93997
 Alpha virt. eigenvalues --    5.97170   5.99747   6.05786   6.18830   6.20238
 Alpha virt. eigenvalues --    6.23702   6.25503   6.27235   6.31380   6.36885
 Alpha virt. eigenvalues --    6.39745   6.42929   6.48027   6.51410   6.51546
 Alpha virt. eigenvalues --    6.56910   6.57749   6.69580   6.71346   6.73179
 Alpha virt. eigenvalues --    6.75906   6.79550   6.84198   6.84777   6.86267
 Alpha virt. eigenvalues --    6.86868   6.90430   6.99376   7.02114   7.06007
 Alpha virt. eigenvalues --    7.08461   7.09275   7.09806   7.16853   7.24416
 Alpha virt. eigenvalues --    7.25370   7.32345   9.00959   9.42051   9.55100
 Alpha virt. eigenvalues --   20.03322  22.32511  22.45319  22.54734  22.55836
 Alpha virt. eigenvalues --   22.62233  22.69098  22.72126  22.73103  22.80946
 Alpha virt. eigenvalues --   22.86477  22.90016  22.95720  23.07952  23.11888
 Alpha virt. eigenvalues --   23.20608  23.33690  32.09850  33.17696  44.12823
 Alpha virt. eigenvalues --   44.17543  44.22295  44.26237  44.50675
          Condensed to atoms (all electrons):
               1          2          3          4          5          6
     1  C    5.108934   0.423965   0.417322  -0.006907   0.000046  -0.000387
     2  H    0.423965   0.509755  -0.022972  -0.001087   0.000234  -0.000003
     3  H    0.417322  -0.022972   0.540460   0.001803   0.000002  -0.000007
     4  C   -0.006907  -0.001087   0.001803   5.377245   0.488210   0.268619
     5  H    0.000046   0.000234   0.000002   0.488210   0.542777  -0.032210
     6  O   -0.000387  -0.000003  -0.000007   0.268619  -0.032210   8.039174
     7  H   -0.000063  -0.000004   0.000005  -0.038099  -0.013960   0.284943
     8  C    0.011297   0.013013  -0.009978  -0.007796  -0.059189  -0.053085
     9  H    0.009962   0.000118  -0.002133  -0.100204   0.001573   0.004087
    10  O    0.007064  -0.000373   0.000269  -0.037445   0.001437  -0.008894
    11  H   -0.001332  -0.000126   0.000470   0.015283  -0.000751  -0.000480
    12  C   -0.004505  -0.000177   0.000663   0.044650  -0.092589  -0.032365
    13  H   -0.000219   0.000015   0.000123  -0.089119   0.006797   0.009854
    14  C    0.170723  -0.049842  -0.042570   0.107302   0.012767   0.006726
    15  H   -0.072361  -0.007070  -0.003016  -0.007958   0.000014   0.000112
    16  O   -0.030869   0.000884   0.005216  -0.064853   0.001416   0.005236
    17  N    0.000015  -0.000052  -0.000033   0.006354  -0.011775  -0.002047
    18  C   -0.000664   0.000016   0.000010  -0.008069   0.000389   0.002806
    19  H   -0.000114  -0.000056   0.000037  -0.011726  -0.001724   0.000959
    20  C    0.000020   0.000001  -0.000002   0.008325   0.005034  -0.001223
    21  H    0.000004   0.000000  -0.000000   0.000081   0.000076  -0.000017
    22  C   -0.000010  -0.000000   0.000000   0.000318  -0.000121  -0.000025
    23  H   -0.000000   0.000000  -0.000000   0.000024   0.000003   0.000000
    24  H    0.000000  -0.000000  -0.000000  -0.000501  -0.000139   0.000016
    25  C   -0.000060  -0.000005   0.000001  -0.006700  -0.000176   0.000087
    26  C   -0.000279   0.000039  -0.000005   0.016004  -0.001002  -0.005727
    27  H   -0.000016   0.000001  -0.000000   0.000718  -0.000089  -0.000139
    28  C    0.000000  -0.000000  -0.000000  -0.000024   0.000003  -0.000005
    29  O   -0.000000   0.000000  -0.000000   0.000005  -0.000000  -0.000000
    30  N   -0.000000   0.000000   0.000000   0.000000   0.000000  -0.000000
    31  H   -0.000000   0.000000   0.000000   0.000000   0.000000  -0.000000
    32  H    0.000000   0.000000  -0.000000   0.000000   0.000000   0.000000
    33  C    0.000001  -0.000000   0.000000  -0.000109  -0.000362  -0.015243
    34  C    0.000001  -0.000000  -0.000000   0.001082   0.000307   0.009083
    35  C    0.000000   0.000000  -0.000000   0.000040   0.000166   0.000740
    36  C   -0.000000   0.000000   0.000000   0.000004   0.000001  -0.000000
    37  C   -0.000000   0.000000   0.000000   0.000073   0.000014  -0.000038
    38  O   -0.000000   0.000000  -0.000000   0.001499  -0.000008  -0.021886
    39  S   -0.000000  -0.000000  -0.000000  -0.000041   0.000005   0.000596
    40  H   -0.000000   0.000000  -0.000000   0.000141   0.000028   0.000152
    41  H   -0.000004   0.000000  -0.000000  -0.000125   0.000477   0.010665
    42  H    0.000000   0.000000  -0.000000   0.000000   0.000000  -0.000000
    43  H    0.000000  -0.000000  -0.000000  -0.000000  -0.000000  -0.000000
    44  H    0.000000  -0.000000  -0.000000  -0.000000  -0.000000   0.000000
    45  H   -0.000000   0.000000   0.000000   0.000016   0.000005   0.000016
    46  H    0.000000  -0.000000  -0.000000   0.000001   0.000001   0.000038
    47  H    0.378791  -0.022230  -0.025905   0.000592  -0.000237   0.000027
    48  H    0.000000   0.000000  -0.000000  -0.000012   0.000002   0.000281
               7          8          9         10         11         12
     1  C   -0.000063   0.011297   0.009962   0.007064  -0.001332  -0.004505
     2  H   -0.000004   0.013013   0.000118  -0.000373  -0.000126  -0.000177
     3  H    0.000005  -0.009978  -0.002133   0.000269   0.000470   0.000663
     4  C   -0.038099  -0.007796  -0.100204  -0.037445   0.015283   0.044650
     5  H   -0.013960  -0.059189   0.001573   0.001437  -0.000751  -0.092589
     6  O    0.284943  -0.053085   0.004087  -0.008894  -0.000480  -0.032365
     7  H    0.377629   0.011801  -0.000408  -0.000597   0.000196   0.005706
     8  C    0.011801   5.438641   0.513649   0.297383  -0.047643  -0.030261
     9  H   -0.000408   0.513649   0.581323  -0.054449  -0.007347   0.012097
    10  O   -0.000597   0.297383  -0.054449   7.993430   0.295220  -0.027558
    11  H    0.000196  -0.047643  -0.007347   0.295220   0.431293  -0.001292
    12  C    0.005706  -0.030261   0.012097  -0.027558  -0.001292   5.488691
    13  H   -0.001359   0.014827   0.002627   0.015414  -0.001135   0.436344
    14  C   -0.000990   0.041376  -0.125351  -0.059635   0.002690  -0.086078
    15  H    0.000077  -0.043081   0.010736  -0.000900   0.003301  -0.000541
    16  O    0.000115  -0.032136   0.005411   0.008683  -0.000005   0.257497
    17  N    0.004589   0.000721  -0.000715  -0.000082   0.000015   0.232182
    18  C    0.000106  -0.003287  -0.000182  -0.000211   0.000010  -0.088593
    19  H    0.000325   0.001253  -0.000016  -0.000000   0.000003   0.013264
    20  C   -0.001884  -0.001052   0.000030   0.000005  -0.000001   0.008351
    21  H   -0.000022  -0.000002   0.000000   0.000000  -0.000000   0.000154
    22  C    0.000331  -0.000020  -0.000003  -0.000002   0.000000  -0.013026
    23  H   -0.000008   0.000000   0.000000   0.000000  -0.000000  -0.000060
    24  H    0.000467   0.000027  -0.000001   0.000000   0.000000   0.002619
    25  C    0.000576  -0.000491  -0.000004  -0.000028  -0.000000  -0.010644
    26  C   -0.000659  -0.004107  -0.000083  -0.000532  -0.000036  -0.071278
    27  H    0.000060  -0.000059  -0.000007  -0.000115   0.000004  -0.002682
    28  C    0.000026   0.000005   0.000000   0.000000  -0.000000   0.000168
    29  O    0.000003   0.000000   0.000000  -0.000000  -0.000000   0.000406
    30  N    0.000000  -0.000000  -0.000000  -0.000000  -0.000000   0.000002
    31  H   -0.000000  -0.000000   0.000000  -0.000000  -0.000000  -0.000006
    32  H   -0.000000  -0.000000  -0.000000   0.000000  -0.000000  -0.000011
    33  C    0.004043   0.000558   0.000012  -0.000679   0.000044   0.000080
    34  C   -0.006713   0.000007  -0.000018   0.000013   0.000001  -0.000629
    35  C    0.000388  -0.000094   0.000000  -0.000000  -0.000000  -0.000924
    36  C   -0.000004  -0.000000   0.000000  -0.000000  -0.000000  -0.000024
    37  C   -0.000403  -0.000000   0.000000   0.000000  -0.000000  -0.000732
    38  O    0.031548  -0.000155   0.000001  -0.000001  -0.000000   0.000073
    39  S   -0.001324  -0.000029  -0.000000   0.000002  -0.000001   0.000181
    40  H   -0.001087  -0.000028   0.000000   0.000013  -0.000001   0.000010
    41  H   -0.009752  -0.000978   0.000010   0.002096  -0.000143  -0.000219
    42  H    0.000000   0.000000  -0.000000  -0.000000  -0.000000   0.000001
    43  H    0.000001   0.000000  -0.000000   0.000000   0.000000   0.000003
    44  H   -0.000000   0.000000  -0.000000   0.000000   0.000000   0.000000
    45  H   -0.000089  -0.000000   0.000000  -0.000000  -0.000000  -0.000065
    46  H   -0.000121   0.000000  -0.000000  -0.000000   0.000000   0.000118
    47  H    0.000024  -0.013083   0.000673   0.000207   0.000155  -0.000952
    48  H    0.000268  -0.000017   0.000001   0.000004  -0.000002   0.000005
              13         14         15         16         17         18
     1  C   -0.000219   0.170723  -0.072361  -0.030869   0.000015  -0.000664
     2  H    0.000015  -0.049842  -0.007070   0.000884  -0.000052   0.000016
     3  H    0.000123  -0.042570  -0.003016   0.005216  -0.000033   0.000010
     4  C   -0.089119   0.107302  -0.007958  -0.064853   0.006354  -0.008069
     5  H    0.006797   0.012767   0.000014   0.001416  -0.011775   0.000389
     6  O    0.009854   0.006726   0.000112   0.005236  -0.002047   0.002806
     7  H   -0.001359  -0.000990   0.000077   0.000115   0.004589   0.000106
     8  C    0.014827   0.041376  -0.043081  -0.032136   0.000721  -0.003287
     9  H    0.002627  -0.125351   0.010736   0.005411  -0.000715  -0.000182
    10  O    0.015414  -0.059635  -0.000900   0.008683  -0.000082  -0.000211
    11  H   -0.001135   0.002690   0.003301  -0.000005   0.000015   0.000010
    12  C    0.436344  -0.086078  -0.000541   0.257497   0.232182  -0.088593
    13  H    0.516823  -0.011143   0.006402  -0.032316  -0.053873   0.014258
    14  C   -0.011143   5.392065   0.417574   0.195560   0.013045  -0.000613
    15  H    0.006402   0.417574   0.611276  -0.037205  -0.001147   0.000297
    16  O   -0.032316   0.195560  -0.037205   8.067117  -0.080012   0.014102
    17  N   -0.053873   0.013045  -0.001147  -0.080012   6.482029   0.305904
    18  C    0.014258  -0.000613   0.000297   0.014102   0.305904   5.066653
    19  H    0.001051  -0.002373   0.000128   0.008671  -0.046962   0.412095
    20  C   -0.000193   0.000429   0.000002  -0.001287  -0.075329   0.506283
    21  H    0.000005  -0.000003  -0.000000  -0.000067   0.004488  -0.033124
    22  C    0.000213  -0.000028   0.000002   0.000622  -0.019513  -0.017851
    23  H   -0.000008  -0.000000  -0.000000  -0.000003  -0.001689   0.003981
    24  H   -0.000052   0.000003   0.000000   0.000037   0.018669   0.011319
    25  C    0.008588   0.000256   0.000025  -0.001770  -0.057924   0.048530
    26  C   -0.019188   0.000152  -0.000459   0.002003   0.335945  -0.184965
    27  H   -0.000737  -0.000020  -0.000018   0.000652  -0.035423   0.008037
    28  C    0.000090  -0.000005   0.000000   0.000004   0.004568   0.004155
    29  O   -0.000040  -0.000000   0.000000  -0.000001  -0.000138   0.000443
    30  N   -0.000000   0.000000  -0.000000  -0.000000  -0.000406  -0.000029
    31  H    0.000000  -0.000000   0.000000   0.000000   0.000016  -0.000010
    32  H    0.000001   0.000000  -0.000000   0.000000   0.000035   0.000269
    33  C   -0.000380  -0.000066   0.000000   0.000001   0.000170  -0.000033
    34  C    0.000433   0.000054  -0.000000   0.000058   0.003735  -0.000551
    35  C   -0.000132  -0.000005  -0.000000  -0.000031  -0.014198   0.003559
    36  C    0.000001  -0.000000  -0.000000  -0.000000  -0.000316   0.000546
    37  C    0.000015  -0.000002  -0.000000  -0.000002  -0.002364   0.001598
    38  O   -0.000275   0.000015  -0.000000   0.000005   0.002851   0.003005
    39  S    0.001220   0.000013   0.000000   0.000004   0.000519  -0.000148
[...]
      4        6           0.004333457   -0.004782929   -0.004043439
      5        1           0.004789034    0.005046661   -0.000175213
      6        8           0.000937384   -0.004572041   -0.010728499
      7        1          -0.006053338    0.002291620    0.002233633
      8        6          -0.011714439   -0.005960736   -0.005284790
      9        1           0.001079121    0.005316582   -0.002666289
     10        8           0.006630924   -0.001307704   -0.000995504
     11        1          -0.001709703    0.001643477    0.000341579
     12        6          -0.004447894    0.002459980    0.003245365
     13        1          -0.003028019   -0.001481788   -0.002903321
     14        6           0.000747852    0.001420842    0.006408950
     15        1          -0.002477370    0.002048433    0.001679262
     16        8          -0.002059285   -0.000544950    0.007422217
     17        7           0.022386377    0.006737095    0.007787453
     18        6          -0.005863102   -0.008639306   -0.000247258
     19        1           0.003405434    0.000404794    0.000316800
     20        6          -0.001768557   -0.005543956    0.002899022
     21        1          -0.000600904   -0.003572040   -0.000058093
     22        6          -0.019095438    0.019686078    0.019373466
     23        1          -0.000785617   -0.000174626   -0.002336670
     24        1           0.012755030   -0.025364095   -0.030256644
     25        6          -0.009175308    0.006872053   -0.004372570
     26        6           0.002694697   -0.001887846    0.001016056
     27        1           0.003622207    0.000185854    0.000956487
     28        6          -0.015458462   -0.008649564   -0.000710497
     29        8           0.003247469    0.005989211   -0.004608361
     30        7           0.027038740   -0.000878809   -0.004746159
     31        1          -0.002566270   -0.005425218    0.008858881
     32        1          -0.003149572    0.005994716    0.007431099
     33        6          -0.001676933   -0.010263830   -0.000118026
     34        6          -0.002506234   -0.032315981    0.015332697
     35        6          -0.005397619    0.000360757   -0.015681558
     36        6          -0.001527594    0.001412369   -0.005701745
     37        6          -0.003606687    0.013428876    0.027471707
     38        8           0.000983529    0.015033521   -0.010571900
     39       16           0.013652753    0.014668681    0.007896512
     40        1           0.001597691    0.000561568    0.000215621
     41        1           0.001118752    0.000766318    0.002883384
     42        1          -0.003041252   -0.001153722   -0.003370717
     43        1           0.000162069    0.002713430   -0.001706539
     44        1          -0.000692598    0.000943870    0.000636280
     45        1           0.004684365   -0.006530068   -0.004047917
     46        1          -0.000083922    0.004291038   -0.002169466
     47        1           0.000592640   -0.001837297   -0.000525522
     48        1          -0.002974368    0.004692108   -0.005250224
 -------------------------------------------------------------------
 Cartesian Forces:  Max     0.032315981 RMS     0.008273217
 Leave Link  716 at Sun Apr  9 10:48:10 2023, MaxMem=  2684354560 cpu:               1.1 elap:               0.1
 (Enter /opt/gaussian/g16/l103.exe)

 GradGradGradGradGradGradGradGradGradGradGradGradGradGradGradGradGradGrad
 Berny optimization.
 Search for a local minimum.
 Step number   1 out of a maximum of    2
 All quantities printed in internal units (Hartrees-Bohrs-Radians)
 Second derivative matrix not updated -- first step.
 ITU=  0
     Eigenvalues ---    0.00051   0.00099   0.00113   0.00129   0.00165
     Eigenvalues ---    0.00297   0.00373   0.00382   0.00474   0.00477
     Eigenvalues ---    0.00577   0.00752   0.00905   0.00959   0.00991
     Eigenvalues ---    0.01047   0.01206   0.01391   0.01409   0.01541
     Eigenvalues ---    0.01722   0.02000   0.02118   0.02368   0.02532
     Eigenvalues ---    0.02932   0.03110   0.03235   0.03937   0.04062
     Eigenvalues ---    0.04222   0.04574   0.04787   0.04869   0.04982
     Eigenvalues ---    0.05095   0.05173   0.05497   0.05793   0.05847
     Eigenvalues ---    0.06071   0.06239   0.06385   0.06607   0.07001
     Eigenvalues ---    0.07228   0.07473   0.07598   0.07768   0.08212
     Eigenvalues ---    0.08580   0.08948   0.09672   0.09824   0.10289
     Eigenvalues ---    0.10928   0.11196   0.11976   0.12020   0.12066
     Eigenvalues ---    0.12558   0.13032   0.13202   0.13252   0.13848
     Eigenvalues ---    0.13992   0.14377   0.14986   0.15581   0.16244
     Eigenvalues ---    0.16585   0.16946   0.17667   0.18220   0.18952
     Eigenvalues ---    0.20040   0.21169   0.21866   0.21898   0.23926
     Eigenvalues ---    0.27111   0.27235   0.27777   0.30994   0.33113
     Eigenvalues ---    0.33736   0.35501   0.35906   0.36645   0.37341
     Eigenvalues ---    0.37341   0.37341   0.37341   0.37341   0.41321
     Eigenvalues ---    0.41864   0.44690   0.47995   0.53200   0.55464
     Eigenvalues ---    0.60788   0.65747   0.66638   0.68518   0.73032
     Eigenvalues ---    0.75402   0.79129   0.83502   0.87790   0.89716
     Eigenvalues ---    0.90445   0.92269   0.92780   0.93681   0.95104
     Eigenvalues ---    0.95305   0.97098   0.99009   1.02292   1.02632
     Eigenvalues ---    1.04722   1.06021   1.07576   1.09970   1.10145
     Eigenvalues ---    1.16605   1.17643   1.19108   1.24481   1.28135
     Eigenvalues ---    1.30416   1.33917   1.48566   1.53783   1.70041
     Eigenvalues ---    1.78547   2.01401   2.34052
 Quadratic step=3.749D+00 exceeds max=3.000D-01 adjusted using Lamda=-6.436D-02.
 Angle between NR and scaled steps=  66.44 degrees.
 Angle between quadratic step and forces=  45.68 degrees.
 Linear search not attempted -- first point.
 Variable       Old X    -DE/DX   Delta X   Delta X   Delta X     New X
                                 (Linear)    (Quad)   (Total)
    X1        6.59938  -0.00554   0.00000  -0.01900  -0.01900   6.58039
    Y1       -6.91134   0.01408   0.00000   0.02810   0.02810  -6.88325
    Z1       -1.31359  -0.00071   0.00000  -0.00088  -0.00088  -1.31448
    X2        6.77105  -0.00038   0.00000  -0.02198  -0.02198   6.74907
    Y2       -7.21845  -0.00369   0.00000  -0.00985  -0.00985  -7.22830
    Z2       -3.33608  -0.00134   0.00000  -0.00080  -0.00080  -3.33688
    X3        8.29640   0.00092   0.00000  -0.02354  -0.02354   8.27286
    Y3       -7.57987  -0.00447   0.00000  -0.01903  -0.01903  -7.59890
    Z3       -0.37226   0.00092   0.00000  -0.00618  -0.00618  -0.37844
    X4        3.09679   0.00433   0.00000   0.00635   0.00635   3.10314
    Y4       -2.40403  -0.00478   0.00000   0.00238   0.00238  -2.40165
    Z4        1.86256  -0.00404   0.00000  -0.01957  -0.01957   1.84299
    X5        1.80989   0.00479   0.00000   0.01964   0.01964   1.82953
    Y5       -4.05449   0.00505   0.00000   0.01435   0.01435  -4.04014
    Z5        1.80569  -0.00018   0.00000  -0.01259  -0.01259   1.79309
    X6        2.56722   0.00094   0.00000  -0.01393  -0.01393   2.55329
    Y6       -0.81927  -0.00457   0.00000   0.00439   0.00439  -0.81488
    Z6        3.90004  -0.01073   0.00000  -0.04154  -0.04154   3.85850
    X7        0.82573  -0.00605   0.00000  -0.02391  -0.02391   0.80182
    Y7       -0.26101   0.00229   0.00000   0.00790   0.00790  -0.25311
    Z7        3.79209   0.00223   0.00000   0.00431   0.00431   3.79640
    X8        5.85170  -0.01171   0.00000  -0.01375  -0.01375   5.83794
    Y8       -3.36444  -0.00596   0.00000   0.00496   0.00496  -3.35948
    Z8        1.97558  -0.00528   0.00000  -0.01045  -0.01045   1.96513
    X9        6.01178   0.00108   0.00000   0.00183   0.00183   6.01361
    Y9       -5.03286   0.00532   0.00000   0.02199   0.02199  -5.01087
    Z9        3.21541  -0.00267   0.00000  -0.01102  -0.01102   3.20439
   X10        7.32532   0.00663   0.00000   0.01512   0.01512   7.34044
   Y10       -1.34058  -0.00131   0.00000  -0.00283  -0.00283  -1.34341
   Z10        2.84510  -0.00100   0.00000  -0.01926  -0.01926   2.82584
   X11        9.06571  -0.00171   0.00000   0.01027   0.01027   9.07598
   Y11       -1.87472   0.00164   0.00000  -0.00352  -0.00352  -1.87824
   Z11        2.89041   0.00034   0.00000  -0.00918  -0.00918   2.88123
   X12        3.14225  -0.00445   0.00000   0.00192   0.00192   3.14417
   Y12       -1.16258   0.00246   0.00000   0.01233   0.01233  -1.15025
   Z12       -0.79341   0.00325   0.00000   0.01023   0.01023  -0.78318
   X13        4.25079  -0.00303   0.00000  -0.00470  -0.00470   4.24609
   Y13        0.58620  -0.00148   0.00000   0.00855   0.00855   0.59475
   Z13       -0.61674  -0.00290   0.00000  -0.01708  -0.01708  -0.63381
   X14        6.39585   0.00075   0.00000  -0.00670  -0.00670   6.38915
   Y14       -4.07969   0.00142   0.00000   0.01538   0.01538  -4.06431
   Z14       -0.84049   0.00641   0.00000   0.01549   0.01549  -0.82500
   X15        8.18974  -0.00248   0.00000  -0.01799  -0.01799   8.17175
   Y15       -3.20306   0.00205   0.00000   0.02750   0.02750  -3.17555
   Z15       -1.41033   0.00168   0.00000   0.01387   0.01387  -1.39646
   X16        4.40237  -0.00206   0.00000  -0.01603  -0.01603   4.38634
   Y16       -2.97429  -0.00054   0.00000  -0.00098  -0.00098  -2.97527
   Z16       -2.32270   0.00742   0.00000   0.02813   0.02813  -2.29457
   X17        0.69856   0.02239   0.00000   0.02278   0.02278   0.72133
   Y17       -0.49850   0.00674   0.00000   0.01015   0.01015  -0.48834
   Z17       -1.88471   0.00779   0.00000   0.01961   0.01961  -1.86510
   X18       -1.22938  -0.00586   0.00000   0.00741   0.00741  -1.22197
   Y18       -2.24100  -0.00864   0.00000  -0.00683  -0.00683  -2.24783
   Z18       -1.99920  -0.00025   0.00000   0.01131   0.01131  -1.98789
   X19       -0.79339   0.00341   0.00000   0.03080   0.03080  -0.76259
   Y19       -4.14859   0.00040   0.00000   0.00092   0.00092  -4.14767
   Z19       -1.42516   0.00032   0.00000   0.01298   0.01298  -1.41219
   X20       -3.51303  -0.00177   0.00000  -0.00582  -0.00582  -3.51885
   Y20       -1.61567  -0.00554   0.00000  -0.01956  -0.01956  -1.63523
   Z20       -2.85433   0.00290   0.00000   0.01267   0.01267  -2.84166
   X21       -4.98537  -0.00060   0.00000   0.00013   0.00013  -4.98524
   Y21       -3.01641  -0.00357   0.00000  -0.03015  -0.03015  -3.04657
   Z21       -2.93818  -0.00006   0.00000   0.01518   0.01518  -2.92300
   X22       -4.09046  -0.01910   0.00000  -0.02908  -0.02908  -4.11954
   Y22        0.97862   0.01969   0.00000  -0.00728  -0.00728   0.97134
   Z22       -3.54376   0.01937   0.00000   0.00083   0.00083  -3.54293
   X23       -5.65129  -0.00079   0.00000  -0.02062  -0.02062  -5.67191
   Y23        1.19505  -0.00017   0.00000   0.00181   0.00181   1.19686
   Z23       -4.85307  -0.00234   0.00000  -0.00865  -0.00865  -4.86172
   X24       -5.03764   0.01276   0.00000   0.02868   0.02868  -5.00896
   Y24        2.19808  -0.02536   0.00000  -0.13307  -0.13307   2.06501
   Z24       -1.55526  -0.03026   0.00000  -0.11217  -0.11217  -1.66743
   X25       -1.84126  -0.00918   0.00000  -0.02216  -0.02216  -1.86342
   Y25        2.49727   0.00687   0.00000   0.00462   0.00462   2.50189
   Z25       -4.06713  -0.00437   0.00000   0.01752   0.01752  -4.04961
   X26        0.37647   0.00269   0.00000   0.00005   0.00005   0.37652
   Y26        1.80341  -0.00189   0.00000   0.00387   0.00387   1.80728
   Z26       -3.04325   0.00102   0.00000   0.00948   0.00948  -3.03377
   X27        2.00113   0.00362   0.00000   0.01222   0.01222   2.01334
   Y27        3.02658   0.00019   0.00000   0.00027   0.00027   3.02685
   Z27       -3.16831   0.00096   0.00000   0.00770   0.00770  -3.16062
   X28       -2.14584  -0.01546   0.00000  -0.00504  -0.00504  -2.15088
   Y28        5.00127  -0.00865   0.00000  -0.00672  -0.00672   4.99455
   Z28       -5.34688  -0.00071   0.00000   0.02118   0.02118  -5.32570
   X29       -0.89065   0.00325   0.00000   0.01817   0.01817  -0.87248
   Y29        6.82138   0.00599   0.00000   0.00016   0.00016   6.82154
   Z29       -4.81722  -0.00461   0.00000  -0.03911  -0.03911  -4.85632
   X30       -4.22372   0.02704   0.00000   0.07160   0.07160  -4.15212
   Y30        5.12464  -0.00088   0.00000  -0.00610  -0.00610   5.11853
   Z30       -7.07199  -0.00475   0.00000  -0.00309  -0.00309  -7.07508
   X31       -4.02532  -0.00257   0.00000   0.01469   0.01469  -4.01063
   Y31        6.66883  -0.00543   0.00000   0.00770   0.00770   6.67654
   Z31       -8.22500   0.00886   0.00000   0.03879   0.03879  -8.18621
   X32       -4.34722  -0.00315   0.00000  -0.01161  -0.01161  -4.35883
   Y32        3.52762   0.00599   0.00000   0.00256   0.00256   3.53018
   Z32       -8.15777   0.00743   0.00000   0.02989   0.02989  -8.12789
   X33        1.26037  -0.00168   0.00000  -0.00619  -0.00619   1.25419
   Y33        4.05361  -0.01026   0.00000  -0.02649  -0.02649   4.02712
   Z33        7.19609  -0.00012   0.00000   0.00356   0.00356   7.19965
   X34       -2.04759  -0.00251   0.00000   0.01287   0.01287  -2.03472
   Y34        3.86385  -0.03232   0.00000  -0.02532  -0.02532   3.83853
   Z34        3.25585   0.01533   0.00000   0.00158   0.00158   3.25743
   X35       -3.45925  -0.00540   0.00000   0.00334   0.00334  -3.45591
   Y35        5.02823   0.00036   0.00000   0.01151   0.01151   5.03974
   Z35        1.28230  -0.01568   0.00000  -0.00477  -0.00477   1.27753
   X36       -7.30721  -0.00153   0.00000  -0.01916  -0.01916  -7.32638
   Y36        5.80107   0.00141   0.00000   0.00572   0.00572   5.80679
   Z36       -1.23843  -0.00570   0.00000  -0.01525  -0.01525  -1.25368
   X37       -5.66273  -0.00361   0.00000  -0.03990  -0.03990  -5.70263
   Y37        4.08324   0.01343   0.00000   0.05692   0.05692   4.14016
   Z37        0.29623   0.02747   0.00000   0.08627   0.08627   0.38250
   X38       -2.29201   0.00098   0.00000   0.00390   0.00390  -2.28811
   Y38        1.66418   0.01503   0.00000  -0.02122  -0.02122   1.64296
   Z38        4.03716  -0.01057   0.00000  -0.04931  -0.04931   3.98785
   X39        0.07987   0.01365   0.00000   0.02587   0.02587   0.10574
   Y39        5.94894   0.01467   0.00000   0.00951   0.00951   5.95845
   Z39        4.63737   0.00790   0.00000   0.02084   0.02084   4.65821
   X40       -0.35027   0.00160   0.00000  -0.00043  -0.00043  -0.35071
   Y40        3.28497   0.00056   0.00000  -0.01290  -0.01290   3.27207
   Z40        8.22500   0.00022   0.00000   0.01186   0.01186   8.23686
   X41        2.35145   0.00112   0.00000   0.02260   0.02260   2.37405
   Y41        2.50033   0.00077   0.00000  -0.01257  -0.01257   2.48776
   Z41        6.40516   0.00288   0.00000   0.03006   0.03006   6.43521
   X42       -7.77066  -0.00304   0.00000  -0.00963  -0.00963  -7.78029
   Y42        4.99283  -0.00115   0.00000  -0.02595  -0.02595   4.96688
   Z42       -3.06466  -0.00337   0.00000  -0.01308  -0.01308  -3.07774
   X43       -6.34280   0.00016   0.00000  -0.01223  -0.01223  -6.35502
   Y43        7.57987   0.00271   0.00000   0.00645   0.00645   7.58631
   Z43       -1.57522  -0.00171   0.00000  -0.03245  -0.03245  -1.60767
   X44       -9.06571  -0.00069   0.00000  -0.01975  -0.01975  -9.08546
   Y44        6.17197   0.00094   0.00000   0.01900   0.01900   6.19097
   Z44       -0.23650   0.00064   0.00000  -0.02322  -0.02322  -0.25972
   X45       -6.67632   0.00468   0.00000   0.02171   0.02171  -6.65461
   Y45        2.73585  -0.00653   0.00000  -0.05142  -0.05142   2.68443
   Z45        1.47937  -0.00405   0.00000   0.00452   0.00452   1.48389
   X46       -2.67980  -0.00008   0.00000   0.00091   0.00091  -2.67889
   Y46        6.75654   0.00429   0.00000   0.01775   0.01775   6.77428
   Z46        0.53315  -0.00217   0.00000  -0.01586  -0.01586   0.51729
   X47        4.93789   0.00059   0.00000  -0.01015  -0.01015   4.92774
   Y47       -7.88868  -0.00184   0.00000   0.00779   0.00779  -7.88088
   Z47       -0.58761  -0.00053   0.00000  -0.00393  -0.00393  -0.59154
   X48        2.45597  -0.00297   0.00000  -0.03020  -0.03020   2.42577
   Y48        5.14042   0.00469   0.00000   0.03182   0.03182   5.17225
   Z48        8.47365  -0.00525   0.00000  -0.02854  -0.02854   8.44511
         Item               Value     Threshold  Converged?
 Maximum Force            0.032316     0.000450     NO 
 RMS     Force            0.008273     0.000300     NO 
 Maximum Displacement     0.133066     0.001800     NO 
 RMS     Displacement     0.025065     0.001200     NO 
 Predicted change in Energy=-1.334306D-02
 GradGradGradGradGradGradGradGradGradGradGradGradGradGradGradGradGradGrad

 Leave Link  103 at Sun Apr  9 10:48:10 2023, MaxMem=  2684354560 cpu:               1.7 elap:               0.1
 (Enter /opt/gaussian/g16/l9999.exe)

 Test job not archived.
 1\1\GINC-JULIO-SYS\Force\RM062X\def2TZVP\C16H24N2O5S1\JVELAZQUEZ\09-Ap
 r-2023\0\\#P M062X/Def2TZVP scf=(direct,conver=8) EmpiricalDispersion=
 GD3 NoSymm Force pop=(NBORead) Charge Prop=(Field,Read)\\Gaussian run 
 using SANDER external interface, route from template gau_job.tpl\\0,1\
 C,3.4922435937,-3.6573257539,-0.6951229155\H,3.5830847513,-3.819838479
 2,-1.765375658\H,4.3902637168,-4.011092529,-0.1969913947\C,1.638749359
 7,-1.2721562671,0.9856252007\H,0.9577506874,-2.1455434566,0.9555282489
 \O,1.3585167113,-0.4335377442,2.0638121808\H,0.4369585892,-0.138119261
 2,2.0066860879\C,3.0965843271,-1.7803845244,1.0454336196\H,3.181295258
 1,-2.663275437,1.7015217464\O,3.8763912638,-0.7094050323,1.505559968\H
 ,4.7973665347,-0.9920601086,1.5295413674\C,1.662807917,-0.6152133525,-
 0.4198566952\H,2.2494227207,0.3102020517,-0.3263630815\C,3.3845354674,
 -2.1588777598,-0.4447675369\H,4.333823871,-1.6949839804,-0.7463146493\
 O,2.3296312454,-1.5739246449,-1.2291210962\N,0.3696605593,-0.263792355
 4,-0.9973469111\C,-0.650559362,-1.1858866341,-1.057929111\H,-0.4198440
 951,-2.1953390683,-0.754162743\C,-1.8590154374,-0.854973179,-1.5104485
 735\H,-2.6381455441,-1.5962178267,-1.5548194326\C,-2.1645791959,0.5178
 616388,-1.8752766838\H,-2.9905340262,0.6323934837,-2.5681335761\H,-2.6
 658053695,1.1631719103,-0.8230079384\C,-0.974351094,1.3214973922,-2.15
 22326575\C,0.1992197095,0.9543244924,-1.6104205943\H,1.0589518896,1.60
 15991304,-1.6765991563\C,-1.1355298882,2.646555827,-2.82944849\O,-0.47
 13131265,3.6097167425,-2.5491622395\N,-2.2350973429,2.7118409029,-3.74
 23338605\H,-2.1301059928,3.5289945674,-4.3524830991\H,-2.300449778,1.8
 667362551,-4.3169084326\C,0.6669616047,2.1450802602,3.8080055791\C,-1.
 0835365532,2.0446623934,1.7229192948\C,-1.8305540217,2.6608262887,0.67
 85614637\C,-3.8668099664,3.0697915781,-0.6553466438\C,-2.996587254,2.1
 60758326,0.1567584784\O,-1.2128813952,0.8806462876,2.1363721821\S,0.04
 22673041,3.1480442642,2.4539905736\H,-0.1853574512,1.7383310566,4.3524
 830991\H,1.2443350976,1.3231196677,3.3894630119\H,-4.112056698,2.64209
 13795,-1.6217477713\H,-3.3564632506,4.011092529,-0.8335715911\H,-4.797
 3665347,3.2660642927,-0.1251529163\H,-3.5329553845,1.4477518645,0.7828
 476294\H,-1.4180893745,3.5754058379,0.2821295418\H,2.613020993,-4.1745
 072044,-0.310947219\H,1.2996452497,2.720194954,4.4840636345\\Version=E
 S64L-G16RevA.03\HF=-1507.8617178\RMSD=4.811e-09\RMSF=8.273e-03\Dipole=
 0.2478654,-1.6380497,-1.0683533\Quadrupole=10.9050532,-9.1838355,-1.72
 12178,-8.2281456,9.0357217,-2.1734512\PG=C01 [X(C16H24N2O5S1)]\\@


 IT IS A SIMPLE TASK TO MAKE THINGS COMPLEX,
 BUT A COMPLEX TASK TO MAKE THEM SIMPLE.
 Job cpu time:       0 days  7 hours  7 minutes 56.0 seconds.
 Elapsed time:       0 days  0 hours 26 minutes 45.3 seconds.
 File lengths (MBytes):  RWF=    435 Int=      0 D2E=      0 Chk=     48 Scr=      1
 Normal termination of Gaussian 16 at Sun Apr  9 10:48:10 2023.
