 Entering Gaussian System, Link 0=g16
 Initial command:
 /opt/gaussian/g16/l1.exe "/opt/gaussian/scratch16/Gau-3405722.inp" -scrdir="/opt/gaussian/scratch16/"
 Entering Link 1 = /opt/gaussian/g16/l1.exe PID=   3405724.
  
 Copyright (c) 1988,1990,1992,1993,1995,1998,2003,2009,2016,
            Gaussian, Inc.  All Rights Reserved.
  
 This is part of the Gaussian(R) 16 program.  It is based on
 the Gaussian(R) 09 system (copyright 2009, Gaussian, Inc.),
 the Gaussian(R) 03 system (copyright 2003, Gaussian, Inc.),
 the Gaussian(R) 98 system (copyright 1998, Gaussian, Inc.),
 the Gaussian(R) 94 system (copyright 1995, Gaussian, Inc.),
 the Gaussian 92(TM) system (copyright 1992, Gaussian, Inc.),
 the Gaussian 90(TM) system (copyright 1990, Gaussian, Inc.),
 the Gaussian 88(TM) system (copyright 1988, Gaussian, Inc.),
 the Gaussian 86(TM) system (copyright 1986, Carnegie Mellon
 University), and the Gaussian 82(TM) system (copyright 1983,
 Carnegie Mellon University). Gaussian is a federally registered
 trademark of Gaussian, Inc.
  
 This software contains proprietary and confidential information,
 including trade secrets, belonging to Gaussian, Inc.
  
 This software is provided under written license and may be
 used, copied, transmitted, or stored only in accord with that
 written license.
  
 The following legend is applicable only to US Government
 contracts under FAR:
  
                    RESTRICTED RIGHTS LEGEND
  
 Use, reproduction and disclosure by the US Government is
 subject to restrictions as set forth in subparagraphs (a)
 and (c) of the Commercial Computer Software - Restricted
 Rights clause in FAR 52.227-19.
  
 Gaussian, Inc.
 340 Quinnipiac St., Bldg. 40, Wallingford CT 06492
  
  
 ---------------------------------------------------------------
 Warning -- This program may not be used in any manner that
 competes with the business of Gaussian, Inc. or will provide
 assistance to any competitor of Gaussian, Inc.  The licensee
 of this program is prohibited from giving any competitor of
 Gaussian, Inc. access to this program.  By using this program,
 the user acknowledges that Gaussian, Inc. is engaged in the
 business of creating and licensing software in the field of
 computational chemistry and represents and warrants to the
 licensee that it is not a competitor of Gaussian, Inc. and that
 it will not use this program in any manner prohibited above.
 ---------------------------------------------------------------
  

 Cite this work as:
 Gaussian 16, Revision A.03,
 M. J. Frisch, G. W. Trucks, H. B. Schlegel, G. E. Scuseria, 
 M. A. Robb, J. R. Cheeseman, G. Scalmani, V. Barone, 
 G. A. Petersson, H. Nakatsuji, X. Li, M. Caricato, A. V. Marenich, 
 J. Bloino, B. G. Janesko, R. Gomperts, B. Mennucci, H. P. Hratchian, 
 J. V. Ortiz, A. F. Izmaylov, J. L. Sonnenberg, D. Williams-Young, 
 F. Ding, F. Lipparini, F. Egidi, J. Goings, B. Peng, A. Petrone, 
 T. Henderson, D. Ranasinghe, V. G. Zakrzewski, J. Gao, N. Rega, 
 G. Zheng, W. Liang, M. Hada, M. Ehara, K. Toyota, R. Fukuda, 
 J. Hasegawa, M. Ishida, T. Nakajima, Y. Honda, O. Kitao, H. Nakai, 
 T. Vreven, K. Throssell, J. A. Montgomery, Jr., J. E. Peralta, 
 F. Ogliaro, M. J. Bearpark, J. J. Heyd, E. N. Brothers, K. N. Kudin, 
 V. N. Staroverov, T. A. Keith, R. Kobayashi, J. Normand, 
 K. Raghavachari, A. P. Rendell, J. C. Burant, S. S. Iyengar, 
 J. Tomasi, M. Cossi, J. M. Millam, M. Klene, C. Adamo, R. Cammi, 
 J. W. Ochterski, R. L. Martin, K. Morokuma, O. Farkas, 
 J. B. Foresman, and D. J. Fox, Gaussian, Inc., Wallingford CT, 2016.
 
 ******************************************
 Gaussian 16:  ES64L-G16RevA.03 25-Dec-2016
                 9-Apr-2023 
 ******************************************
 %chk=20.chk
 %NProcShared=16
 Will use up to   16 processors via shared memory.
 %mem=20GB
 ----------------------------------------------------------------------
 #P M062X/Def2TZVP scf=(direct,conver=8) EmpiricalDispersion=GD3 NoSymm
  Force pop=(NBORead) Charge Prop=(Field,Read)
 ----------------------------------------------------------------------
 1/10=7,18=10,28=-2,30=1,38=1,125=101/1,3;
 2/12=2,15=1,17=6,18=5,29=2,40=1/2;
 3/5=44,7=101,11=2,25=1,30=1,71=1,74=-55,124=31/1,2,3;
 4//1;
 5/5=2,6=8,38=5/2;
 6/7=2,8=2,9=2,10=2,14=2,15=1,28=1,40=2/1,2,7;
 7/7=1,16=-2,29=1,30=1/1,2,3,16;
 1/10=7,18=10,28=-2,30=1/3;
 99/12=1/99;
 Leave Link    1 at Sun Apr  9 10:19:50 2023, MaxMem=  2684354560 cpu:               1.0 elap:               0.1
 (Enter /opt/gaussian/g16/l101.exe)
 ----------------------------------------------------------------------
 Gaussian run using SANDER external interface, route from template gau_
 job.tpl
 ----------------------------------------------------------------------
 Symbolic Z-matrix:
 Charge =  0 Multiplicity = 1
 C                     3.48596  -3.65221  -0.69865 
 H                     3.57618  -3.81538  -1.7689 
 H                     4.38434  -4.00632  -0.20091 
 C                     1.63336  -1.26351   0.98257 
 H                     0.95261  -2.13697   0.95185 
 O                     1.3543   -0.42526   2.05867 
 H                     0.43102  -0.13018   2.00516 
 C                     3.09096  -1.77463   1.04159 
 H                     3.17488  -2.65767   1.69774 
 O                     3.87144  -0.70439   1.50089 
 H                     4.79171  -0.9887    1.52876 
 C                     1.65757  -0.6069   -0.42271 
 H                     2.24793   0.31576  -0.33076 
 C                     3.37823  -2.15353  -0.4486 
 H                     4.32846  -1.69073  -0.74897 
 O                     2.32192  -1.56733  -1.23301 
 N                     0.36258  -0.25618  -0.99867 
 C                    -0.6553   -1.17467  -1.05163 
 H                    -0.43001  -2.18578  -0.74937 
 C                    -1.86588  -0.84172  -1.51206 
 H                    -2.64535  -1.58205  -1.55543 
 C                    -2.15399   0.50765  -1.90636 
 H                    -3.00458   0.63978  -2.56054 
 H                    -2.67738   1.2178   -0.78984 
 C                    -0.98407   1.31985  -2.15648 
 C                     0.19395   0.95867  -1.60964 
 H                     1.05204   1.60875  -1.68403 
 C                    -1.14254   2.65146  -2.83455 
 O                    -0.47411   3.60974  -2.55126 
 N                    -2.23059   2.71562  -3.75083 
 H                    -2.13358   3.53785  -4.35379 
 H                    -2.30681   1.87183  -4.32452 
 C                     0.66423   2.14701   3.80935 
 C                    -1.0952    2.04534   1.7146 
 C                    -1.83059   2.65413   0.67773 
 C                    -3.87752   3.06794  -0.6537 
 C                    -2.99772   2.12459   0.12043 
 O                    -1.21605   0.87761   2.13734 
 S                     0.04111   3.1511    2.45473 
 H                    -0.18836   1.74111   4.35379 
 H                     1.24088   1.32223   3.39503 
 H                    -4.14829   2.65601  -1.62062 
 H                    -3.36027   4.00632  -0.82914 
 H                    -4.79171   3.27116  -0.10003 
 H                    -3.54559   1.44947   0.78414 
 H                    -1.4348    3.58267   0.2946 
 H                     2.60703  -4.16942  -0.31384 
 H                     1.29644   2.72313   4.48499 
 
 ITRead=  0  0  0  0  0  0  0  0  0  0  0  0  0  0  0  0  0  0  0  0
 ITRead=  0  0  0  0  0  0  0  0  0  0  0  0  0  0  0  0  0  0  0  0
 ITRead=  0  0  0  0  0  0  0  0
 MicOpt= -1 -1 -1 -1 -1 -1 -1 -1 -1 -1 -1 -1 -1 -1 -1 -1 -1 -1 -1 -1
 MicOpt= -1 -1 -1 -1 -1 -1 -1 -1 -1 -1 -1 -1 -1 -1 -1 -1 -1 -1 -1 -1
 MicOpt= -1 -1 -1 -1 -1 -1 -1 -1
 NAtoms=     48 NQM=       48 NQMF=       0 NMMI=      0 NMMIF=      0
                NMic=       0 NMicF=      0.
                    Isotopes and Nuclear Properties:
 (Nuclear quadrupole moments (NQMom) in fm**2, nuclear magnetic moments (NMagM)
  in nuclear magnetons)

  Atom         1           2           3           4           5           6           7           8           9          10
 IAtWgt=          12           1           1          12           1          16           1          12           1          16
 AtmWgt=  12.0000000   1.0078250   1.0078250  12.0000000   1.0078250  15.9949146   1.0078250  12.0000000   1.0078250  15.9949146
 NucSpn=           0           1           1           0           1           0           1           0           1           0
 AtZEff=  -0.0000000  -0.0000000  -0.0000000  -0.0000000  -0.0000000  -0.0000000  -0.0000000  -0.0000000  -0.0000000  -0.0000000
 NQMom=    0.0000000   0.0000000   0.0000000   0.0000000   0.0000000   0.0000000   0.0000000   0.0000000   0.0000000   0.0000000
 NMagM=    0.0000000   2.7928460   2.7928460   0.0000000   2.7928460   0.0000000   2.7928460   0.0000000   2.7928460   0.0000000
 AtZNuc=   6.0000000   1.0000000   1.0000000   6.0000000   1.0000000   8.0000000   1.0000000   6.0000000   1.0000000   8.0000000

  Atom        11          12          13          14          15          16          17          18          19          20
 IAtWgt=           1          12           1          12           1          16          14          12           1          12
 AtmWgt=   1.0078250  12.0000000   1.0078250  12.0000000   1.0078250  15.9949146  14.0030740  12.0000000   1.0078250  12.0000000
 NucSpn=           1           0           1           0           1           0           2           0           1           0
 AtZEff=  -0.0000000  -0.0000000  -0.0000000  -0.0000000  -0.0000000  -0.0000000  -0.0000000  -0.0000000  -0.0000000  -0.0000000
 NQMom=    0.0000000   0.0000000   0.0000000   0.0000000   0.0000000   0.0000000   2.0440000   0.0000000   0.0000000   0.0000000
 NMagM=    2.7928460   0.0000000   2.7928460   0.0000000   2.7928460   0.0000000   0.4037610   0.0000000   2.7928460   0.0000000
 AtZNuc=   1.0000000   6.0000000   1.0000000   6.0000000   1.0000000   8.0000000   7.0000000   6.0000000   1.0000000   6.0000000

  Atom        21          22          23          24          25          26          27          28          29          30
 IAtWgt=           1          12           1           1          12          12           1          12          16          14
 AtmWgt=   1.0078250  12.0000000   1.0078250   1.0078250  12.0000000  12.0000000   1.0078250  12.0000000  15.9949146  14.0030740
 NucSpn=           1           0           1           1           0           0           1           0           0           2
 AtZEff=  -0.0000000  -0.0000000  -0.0000000  -0.0000000  -0.0000000  -0.0000000  -0.0000000  -0.0000000  -0.0000000  -0.0000000
 NQMom=    0.0000000   0.0000000   0.0000000   0.0000000   0.0000000   0.0000000   0.0000000   0.0000000   0.0000000   2.0440000
 NMagM=    2.7928460   0.0000000   2.7928460   2.7928460   0.0000000   0.0000000   2.7928460   0.0000000   0.0000000   0.4037610
 AtZNuc=   1.0000000   6.0000000   1.0000000   1.0000000   6.0000000   6.0000000   1.0000000   6.0000000   8.0000000   7.0000000

  Atom        31          32          33          34          35          36          37          38          39          40
 IAtWgt=           1           1          12          12          12          12          12          16          32           1
 AtmWgt=   1.0078250   1.0078250  12.0000000  12.0000000  12.0000000  12.0000000  12.0000000  15.9949146  31.9720718   1.0078250
 NucSpn=           1           1           0           0           0           0           0           0           0           1
 AtZEff=  -0.0000000  -0.0000000  -0.0000000  -0.0000000  -0.0000000  -0.0000000  -0.0000000  -0.0000000  -0.0000000  -0.0000000
 NQMom=    0.0000000   0.0000000   0.0000000   0.0000000   0.0000000   0.0000000   0.0000000   0.0000000   0.0000000   0.0000000
 NMagM=    2.7928460   2.7928460   0.0000000   0.0000000   0.0000000   0.0000000   0.0000000   0.0000000   0.0000000   2.7928460
 AtZNuc=   1.0000000   1.0000000   6.0000000   6.0000000   6.0000000   6.0000000   6.0000000   8.0000000  16.0000000   1.0000000

  Atom        41          42          43          44          45          46          47          48
 IAtWgt=           1           1           1           1           1           1           1           1
 AtmWgt=   1.0078250   1.0078250   1.0078250   1.0078250   1.0078250   1.0078250   1.0078250   1.0078250
 NucSpn=           1           1           1           1           1           1           1           1
 AtZEff=  -0.0000000  -0.0000000  -0.0000000  -0.0000000  -0.0000000  -0.0000000  -0.0000000  -0.0000000
 NQMom=    0.0000000   0.0000000   0.0000000   0.0000000   0.0000000   0.0000000   0.0000000   0.0000000
 NMagM=    2.7928460   2.7928460   2.7928460   2.7928460   2.7928460   2.7928460   2.7928460   2.7928460
 AtZNuc=   1.0000000   1.0000000   1.0000000   1.0000000   1.0000000   1.0000000   1.0000000   1.0000000
 Background charge distribution read from input stream:
 Leave Link  101 at Sun Apr  9 10:19:50 2023, MaxMem=  2684354560 cpu:               4.1 elap:               0.3
 (Enter /opt/gaussian/g16/l103.exe)

 GradGradGradGradGradGradGradGradGradGradGradGradGradGradGradGradGradGrad
 Berny optimization.
 Initialization pass.
 Trust Radius=3.00D-01 FncErr=1.00D-07 GrdErr=1.00D-07 EigMax=2.50D+02 EigMin=1.00D-04
 Number of steps in this run=      2 maximum allowed number of steps=      2.
 GradGradGradGradGradGradGradGradGradGradGradGradGradGradGradGradGradGrad

 Leave Link  103 at Sun Apr  9 10:19:50 2023, MaxMem=  2684354560 cpu:               0.4 elap:               0.0
 (Enter /opt/gaussian/g16/l202.exe)
 ---------------------------------------------------------------------------------------------------
                            Z-MATRIX (ANGSTROMS AND DEGREES)
   CD    Cent   Atom    N1       Length/X        N2       Alpha/Y        N3        Beta/Z          J
 ---------------------------------------------------------------------------------------------------
      1      1  C        0   3.485961         -3.652213         -0.698648
      2      2  H        0   3.576178         -3.815381         -1.768902
      3      3  H        0   4.384337         -4.006316         -0.200905
      4      4  C        0   1.633362         -1.263510          0.982565
      5      5  H        0   0.952609         -2.136974          0.951847
      6      6  O        0   1.354298         -0.425262          2.058669
      7      7  H        0   0.431019         -0.130182          2.005158
      8      8  C        0   3.090958         -1.774632          1.041589
      9      9  H        0   3.174876         -2.657672          1.697738
     10     10  O        0   3.871443         -0.704387          1.500893
     11     11  H        0   4.791714         -0.988703          1.528764
     12     12  C        0   1.657568         -0.606899         -0.422705
     13     13  H        0   2.247928          0.315764         -0.330760
     14     14  C        0   3.378234         -2.153533         -0.448600
     15     15  H        0   4.328462         -1.690733         -0.748968
     16     16  O        0   2.321918         -1.567331         -1.233007
     17     17  N        0   0.362578         -0.256179         -0.998672
     18     18  C        0  -0.655304         -1.174670         -1.051627
     19     19  H        0  -0.430012         -2.185782         -0.749373
     20     20  C        0  -1.865880         -0.841718         -1.512061
     21     21  H        0  -2.645351         -1.582049         -1.555434
     22     22  C        0  -2.153988          0.507654         -1.906356
     23     23  H        0  -3.004577          0.639781         -2.560540
     24     24  H        0  -2.677385          1.217805         -0.789841
     25     25  C        0  -0.984066          1.319847         -2.156477
     26     26  C        0   0.193954          0.958674         -1.609639
     27     27  H        0   1.052037          1.608745         -1.684032
     28     28  C        0  -1.142539          2.651465         -2.834548
     29     29  O        0  -0.474110          3.609741         -2.551258
     30     30  N        0  -2.230590          2.715618         -3.750830
     31     31  H        0  -2.133578          3.537853         -4.353791
     32     32  H        0  -2.306807          1.871826         -4.324523
     33     33  C        0   0.664229          2.147013          3.809349
     34     34  C        0  -1.095199          2.045340          1.714602
     35     35  C        0  -1.830595          2.654130          0.677726
     36     36  C        0  -3.877524          3.067944         -0.653699
     37     37  C        0  -2.997718          2.124593          0.120434
     38     38  O        0  -1.216046          0.877613          2.137342
     39     39  S        0   0.041111          3.151096          2.454732
     40     40  H        0  -0.188363          1.741114          4.353791
     41     41  H        0   1.240879          1.322229          3.395028
     42     42  H        0  -4.148293          2.656009         -1.620620
     43     43  H        0  -3.360266          4.006316         -0.829139
     44     44  H        0  -4.791714          3.271161         -0.100032
     45     45  H        0  -3.545586          1.449469          0.784137
     46     46  H        0  -1.434800          3.582671          0.294596
     47     47  H        0   2.607030         -4.169418         -0.313839
     48     48  H        0   1.296442          2.723133          4.484990
 ---------------------------------------------------------------------------------------------------
                         Z-Matrix orientation:                         
 ---------------------------------------------------------------------
 Center     Atomic      Atomic             Coordinates (Angstroms)
 Number     Number       Type             X           Y           Z
 ---------------------------------------------------------------------
      1          6           0        3.485961   -3.652213   -0.698648
      2          1           0        3.576178   -3.815381   -1.768902
      3          1           0        4.384337   -4.006316   -0.200905
      4          6           0        1.633362   -1.263510    0.982565
      5          1           0        0.952609   -2.136974    0.951847
      6          8           0        1.354298   -0.425262    2.058669
      7          1           0        0.431019   -0.130182    2.005158
      8          6           0        3.090958   -1.774632    1.041589
      9          1           0        3.174876   -2.657672    1.697738
     10          8           0        3.871443   -0.704387    1.500893
     11          1           0        4.791714   -0.988703    1.528764
     12          6           0        1.657568   -0.606899   -0.422705
     13          1           0        2.247928    0.315764   -0.330760
     14          6           0        3.378234   -2.153533   -0.448600
     15          1           0        4.328462   -1.690733   -0.748968
     16          8           0        2.321918   -1.567331   -1.233007
     17          7           0        0.362578   -0.256179   -0.998672
     18          6           0       -0.655304   -1.174670   -1.051627
     19          1           0       -0.430012   -2.185782   -0.749373
     20          6           0       -1.865880   -0.841718   -1.512061
     21          1           0       -2.645351   -1.582049   -1.555434
     22          6           0       -2.153988    0.507654   -1.906356
     23          1           0       -3.004577    0.639781   -2.560540
     24          1           0       -2.677385    1.217805   -0.789841
     25          6           0       -0.984066    1.319847   -2.156477
     26          6           0        0.193954    0.958674   -1.609639
     27          1           0        1.052037    1.608745   -1.684032
     28          6           0       -1.142539    2.651465   -2.834548
     29          8           0       -0.474110    3.609741   -2.551258
     30          7           0       -2.230590    2.715618   -3.750830
     31          1           0       -2.133578    3.537853   -4.353791
     32          1           0       -2.306807    1.871826   -4.324523
     33          6           0        0.664229    2.147013    3.809349
     34          6           0       -1.095199    2.045340    1.714602
     35          6           0       -1.830595    2.654130    0.677726
     36          6           0       -3.877524    3.067944   -0.653699
     37          6           0       -2.997718    2.124593    0.120434
     38          8           0       -1.216046    0.877613    2.137342
     39         16           0        0.041111    3.151096    2.454732
     40          1           0       -0.188363    1.741114    4.353791
     41          1           0        1.240879    1.322229    3.395028
     42          1           0       -4.148293    2.656009   -1.620620
     43          1           0       -3.360266    4.006316   -0.829139
     44          1           0       -4.791714    3.271161   -0.100032
     45          1           0       -3.545586    1.449469    0.784137
     46          1           0       -1.434800    3.582671    0.294596
     47          1           0        2.607030   -4.169418   -0.313839
     48          1           0        1.296442    2.723133    4.484990
 ---------------------------------------------------------------------
                    Distance matrix (angstroms):
                    1          2          3          4          5
     1  C    0.000000
     2  H    1.086373   0.000000
     3  H    1.086377   1.774314   0.000000
     4  C    3.458975   4.225773   4.060967   0.000000
     5  H    3.382005   4.135534   4.074314   1.107840   0.000000
     6  O    4.749737   5.574941   5.206800   1.392313   2.077587
     7  H    5.389614   6.141356   5.959854   1.943130   2.325669
     8  C    2.590321   3.506987   2.863047   1.545742   2.170687
     9  H    2.613150   3.676810   2.624212   2.198050   2.401239
    10  O    3.698142   4.522944   3.749922   2.364379   3.297476
    11  H    3.709534   4.510237   3.501957   3.216992   4.048467
    12  C    3.562738   3.973370   4.363542   1.551293   2.174280
    13  H    4.172878   4.571528   4.823016   2.143973   3.055955
    14  C    1.523211   2.131694   2.122829   2.425892   2.800925
    15  H    2.135356   2.473930   2.380215   3.231763   3.806348
    16  O    2.446890   2.629464   3.356703   2.339910   2.640661
    17  N    4.623698   4.856789   5.556483   2.560255   2.773094
    18  C    4.838687   5.039174   5.842939   3.063303   2.743232
    19  H    4.181847   4.443489   5.176207   2.847404   2.192755
    20  C    6.099403   6.206821   7.127343   4.318073   3.961364
    21  H    6.527837   6.613680   7.558329   4.985007   4.420376
    22  C    7.111405   7.179298   8.126142   5.082018   4.981399
    23  H    8.000934   7.986331   9.041579   6.138940   5.975496
    24  H    7.855713   8.086938   8.803761   5.280235   5.240694
    25  C    6.843083   6.878707   7.811020   4.835106   5.036071
    26  C    5.738248   5.852897   6.647929   3.705336   4.088986
    27  H    5.879851   5.983280   6.695730   3.962137   4.581284
    28  C    8.106876   8.076013   9.044804   6.132129   6.454114
    29  O    8.476456   8.494077   9.334505   6.377924   6.879826
    30  N    9.085376   8.961057  10.076886   7.291681   7.469645
    31  H    9.830378   9.661936  10.800192   8.106763   8.359307
    32  H    8.787386   8.572341   9.814693   7.315767   7.384738
    33  C    7.868623   8.668707   8.233153   4.534489   5.157618
    34  C    7.698890   8.264660   8.385525   4.350794   4.718799
    35  C    8.362424   8.779166   9.151989   5.238303   5.547616
    36  C    9.969125  10.206935  10.886162   7.197827   7.280051
    37  C    8.722413   9.059194   9.601356   5.802535   5.870033
    38  O    7.118359   7.761981   7.790023   3.746604   3.898230
    39  S    8.252019   8.880743   8.783199   4.918464   5.572538
    40  H    8.253228   9.084810   8.642210   4.869456   5.283427
    41  H    6.822291   7.649499   7.155799   3.558098   4.244799
    42  H    9.946132  10.078112  10.918239   7.454310   7.457177
    43  H   10.273311  10.496492  11.161354   7.482624   7.714455
    44  H   10.807930  11.091700  11.712035   7.938315   7.959373
    45  H    8.812972   9.217167   9.675721   5.849883   5.755385
    46  H    8.805906   9.170556   9.576044   5.776884   6.232660
    47  H    1.090000   1.783760   1.788345   3.327611   2.910309
    48  H    8.503478   9.330623   8.762317   5.317313   6.018469
                    6          7          8          9         10
     6  O    0.000000
     7  H    0.970762   0.000000
     8  C    2.423065   3.272301   0.000000
     9  H    2.903176   3.743189   1.103329   0.000000
    10  O    2.593269   3.524274   1.401977   2.083093   0.000000
    11  H    3.523364   4.469862   1.935870   2.329845   0.963593
    12  C    2.506429   2.761558   2.358467   3.317254   2.934446
    13  H    2.656514   2.992748   2.638901   3.716902   2.651690
    14  C    3.656452   4.336007   1.564211   2.214109   2.478669
    15  H    4.281343   5.021015   2.178199   2.872648   2.498723
    16  O    3.616040   4.015795   2.410017   3.241242   3.258820
    17  N    3.218607   3.007251   3.729936   4.576769   4.331379
    18  C    3.778102   3.408077   4.333127   4.942528   5.218042
    19  H    3.764080   3.543206   3.971627   4.382494   5.075504
    20  C    4.826291   4.260617   5.653467   6.245775   6.481791
    21  H    5.513355   4.924408   6.299751   6.753898   7.251209
    22  C    5.375856   4.731706   6.434957   7.169768   7.027389
    23  H    6.439813   5.765568   7.480660   8.197058   8.098251
    24  H    5.202705   4.392183   6.751488   7.446900   7.199265
    25  C    5.126481   4.628635   6.034008   6.926213   6.407015
    26  C    4.088784   3.782667   4.784621   5.736078   5.095596
    27  H    4.270405   4.125489   4.799318   5.843383   4.841835
    28  C    6.296349   5.799690   7.248260   8.207839   7.429522
    29  O    6.393414   5.963825   7.389840   8.405327   7.342714
    30  N    7.514441   6.950838   8.452722   9.369002   8.747104
    31  H    8.306094   7.776109   9.199369  10.158012   9.398627
    32  H    7.708790   7.181128   8.439650   9.318414   8.873731
    33  C    3.187110   2.914636   5.378551   5.817839   4.872953
    34  C    3.496039   2.673324   5.706929   6.352334   5.681038
    35  C    4.640387   3.824835   6.630838   7.369559   6.668618
    36  C    6.850648   5.988412   8.653571   9.383404   8.883649
    37  C    5.403569   4.515799   7.288653   7.966107   7.556068
    38  O    2.882766   1.935445   5.175458   5.654351   5.365663
    39  S    3.830360   3.334806   5.963333   6.643441   5.517789
    40  H    3.512914   3.066179   5.838244   6.141279   5.531864
    41  H    2.202826   2.167281   4.307205   4.739277   3.822929
    42  H    7.301363   6.471417   8.895206   9.637194   9.238629
    43  H    7.085579   6.286311   8.862126   9.669639   8.939652
    44  H    7.489792   6.578594   9.428671  10.092055   9.665310
    45  H    5.398880   4.449672   7.382738   7.928927   7.756619
    46  H    5.191777   4.493616   7.052743   7.884149   6.927498
    47  H    4.606174   5.140836   2.793988   2.579586   4.110770
    48  H    3.975270   3.878135   5.941985   6.344316   5.223347
                   11         12         13         14         15
    11  H    0.000000
    12  C    3.711721   0.000000
    13  H    3.410324   1.099221   0.000000
    14  C    2.695315   2.313750   2.718254   0.000000
    15  H    2.428067   2.900830   2.920539   1.098790   0.000000
    16  O    3.749944   1.421400   2.089395   1.440392   2.067786
    17  N    5.151870   1.460048   2.080329   3.605095   4.224752
    18  C    6.030174   2.463186   3.342125   4.194191   5.019547
    19  H    5.821454   2.637722   3.688406   3.820241   4.784156
    20  C    7.320640   3.695473   4.433808   5.509313   6.298651
    21  H    8.073058   4.555119   5.389407   6.151037   7.021130
    22  C    7.891889   4.239270   4.679337   6.309710   6.942234
    23  H    8.953017   5.278271   5.715393   7.280327   7.904843
    24  H    8.126010   4.717642   5.028234   6.939227   7.585720
    25  C    7.229802   3.700884   3.845414   5.831884   6.266388
    26  C    5.897562   2.449897   2.503532   4.601465   4.985405
    27  H    5.572609   2.620437   2.221103   4.592627   4.742980
    28  C    8.216122   4.926918   4.818684   7.015564   7.289456
    29  O    8.094514   5.182165   4.815640   7.244104   7.376176
    30  N    9.534614   6.101910   6.124811   8.128484   8.452708
    31  H   10.151542   6.856033   6.764926   8.833032   9.060398
    32  H    9.634967   6.089707   6.254365   7.971573   8.336859
    33  C    5.663031   5.145973   4.796048   6.632545   6.995223
    34  C    6.625382   4.379518   4.283857   6.505503   7.031608
    35  C    7.605883   4.900259   4.808258   7.177334   7.671197
    36  C    9.817088   6.647938   6.723091   8.941583   9.486426
    37  C    8.505954   5.424734   5.567068   7.699281   8.305750
    38  O    6.320339   4.124958   4.290259   6.081312   6.757866
    39  S    6.368954   5.001511   4.546220   6.906867   7.217228
    40  H    6.343015   5.633431   5.469200   7.138056   7.630034
    41  H    4.629446   4.297703   3.988560   5.605594   5.981957
    42  H   10.155110   6.766801   6.931965   9.008548   9.566050
    43  H    9.847065   6.828294   6.732042   9.137610   9.569709
    44  H   10.613270   7.532377   7.638335   9.813095  10.402841
    45  H    8.718355   5.723454   6.007752   7.901933   8.614633
    46  H    7.822410   5.256402   4.962483   7.524737   7.881180
    47  H    4.276094   3.688478   4.499567   2.162570   3.049024
    48  H    5.893549   5.941801   5.467376   7.242654   7.487968
                   16         17         18         19         20
    16  O    0.000000
    17  N    2.369186   0.000000
    18  C    3.008477   1.372047   0.000000
    19  H    2.861731   2.100885   1.079103   0.000000
    20  C    4.259347   2.360603   1.337292   2.109482   0.000000
    21  H    4.977745   3.334000   2.092861   2.433507   1.075893
    22  C    4.979226   2.782164   2.409736   3.400780   1.435020
    23  H    5.916522   3.818365   3.329885   4.229955   2.142611
    24  H    5.739896   3.384910   3.143450   4.078814   2.328471
    25  C    4.485323   2.374410   2.747980   3.817900   2.421825
    26  C    3.324272   1.370249   2.363001   3.319186   2.737489
    27  H    3.450142   2.103097   3.326012   4.179534   3.814261
    28  C    5.689080   3.753693   4.249178   5.315507   3.804540
    29  O    6.029729   4.249224   5.017201   6.069335   4.778330
    30  N    6.738577   4.809416   4.990147   6.022836   4.218975
    31  H    7.460136   5.646441   5.941166   6.975239   5.227594
    32  H    6.542963   4.766058   4.766597   5.724356   3.932898
    33  C    6.478398   5.383622   6.033559   6.383762   6.606918
    34  C    5.780699   3.844992   4.267785   4.941259   4.397773
    35  C    6.222137   4.011261   4.362531   5.236697   4.125211
    36  C    7.762374   5.398821   5.342361   6.284595   4.479839
    37  C    6.615182   4.267560   4.212572   5.092054   3.570028
    38  O    5.463899   3.689461   3.833513   4.281981   4.086138
    39  S    6.408202   4.861982   5.611756   6.242637   5.942611
    40  H    6.961295   5.739475   6.159413   6.443694   6.625202
    41  H    5.562096   4.750514   5.440842   5.681028   6.197914
    42  H    7.736309   5.405148   5.215250   6.166655   4.177954
    43  H    7.969684   5.661906   5.848841   6.850900   5.118888
    44  H    8.677465   6.310024   6.146611   7.016004   5.241193
    45  H    6.899098   4.621838   4.313915   5.027276   3.652872
    46  H    6.555076   4.431691   5.005220   5.947649   4.798444
    47  H    2.774350   4.562893   4.489507   3.653508   5.702301
    48  H    7.221854   6.310226   7.046724   7.380830   7.659834
                   21         22         23         24         25
    21  H    0.000000
    22  C    2.175188   0.000000
    23  H    2.464915   1.081164   0.000000
    24  H    2.902815   1.422977   1.891175   0.000000
    25  C    3.397370   1.446007   2.169844   2.178402   0.000000
    26  C    3.810494   2.409210   3.352090   2.997299   1.348039
    27  H    4.885528   3.397121   4.261840   3.854997   2.110067
    28  C    4.670890   2.545682   2.754839   2.931205   1.502697
    29  O    5.714948   3.586200   3.901796   3.698427   2.378974
    30  N    4.843731   2.878031   2.514945   3.348213   2.458447
    31  H    5.857141   3.895184   3.517557   4.287200   3.327028
    32  H    4.439788   2.780621   2.261958   3.613731   2.598990
    33  C    7.323941   6.580207   7.503824   5.760413   6.244370
    34  C    5.123871   4.073923   4.888574   3.075770   3.940044
    35  C    4.857575   3.374822   3.990264   2.221224   3.244939
    36  C    4.894262   3.330887   3.208435   2.209499   3.699498
    37  C    4.083122   2.726582   3.064692   1.324190   3.144318
    38  O    4.661485   4.167505   5.032445   3.289323   4.322762
    39  S    6.760264   5.552057   6.382466   4.653503   5.066331
    40  H    7.211043   6.676417   7.546653   5.738121   6.572229
    41  H    6.931428   6.347703   7.345640   5.733832   5.980769
    42  H    4.497134   2.945221   2.501342   2.218603   3.476321
    43  H    5.680531   3.854366   3.802345   2.871179   3.824300
    44  H    5.502609   4.225799   4.021457   3.026961   4.747081
    45  H    3.933715   3.172115   3.483555   1.812415   3.901974
    46  H    5.618040   3.849305   4.390513   2.883161   3.366199
    47  H    5.985277   6.861370   7.724389   7.561335   6.813466
    48  H    8.399943   7.593624   8.513438   6.773563   7.160937
                   26         27         28         29         30
    26  C    0.000000
    27  H    1.079090   0.000000
    28  C    2.480354   2.688329   0.000000
    29  O    2.891559   2.661802   1.202224   0.000000
    30  N    3.681028   4.033914   1.423919   2.307304   0.000000
    31  H    4.427182   4.582271   2.018896   2.451148   1.024227
    32  H    3.802401   4.280566   2.045332   3.086032   1.023190
    33  C    5.567651   5.533296   6.903640   6.625157   8.115393
    34  C    3.727377   4.043755   4.589597   4.585920   5.622218
    35  C    3.493624   3.870439   3.579036   3.630369   4.447009
    36  C    4.683992   5.243227   3.522741   3.934145   3.525444
    37  C    3.813042   4.463487   3.528627   3.963861   3.990549
    38  O    4.004315   4.503516   5.279361   5.477039   6.251251
    39  S    4.620518   4.531025   5.443082   5.053290   6.622633
    40  H    6.026680   6.165340   7.308311   7.159128   8.414585
    41  H    5.125906   5.090639   6.801115   6.597895   8.065725
    42  H    4.662208   5.305113   3.241636   3.908364   2.866869
    43  H    4.746555   5.093879   3.282621   3.384207   3.387971
    44  H    5.699420   6.278703   4.601965   4.976429   4.494031
    45  H    4.467125   5.220667   4.507140   5.022509   4.888587
    46  H    3.628266   3.741084   3.277820   3.003754   4.213139
    47  H    5.813721   6.138616   8.181545   8.661107   9.089510
    48  H    6.439977   6.273630   7.715530   7.309563   8.959283
                   31         32         33         34         35
    31  H    0.000000
    32  H    1.675264   0.000000
    33  C    8.740652   8.663871   0.000000
    34  C    6.334920   6.161910   2.737497   0.000000
    35  C    5.117512   5.085398   4.035886   1.409448   0.000000
    36  C    4.117383   4.168070   6.433850   3.794193   2.476662
    37  C    4.771030   4.505429   5.197928   2.483391   1.397556
    38  O    7.074853   6.628267   2.818229   1.247758   2.379950
    39  S    7.157851   7.287493   1.797622   1.749769   2.628309
    40  H    9.101324   8.934094   1.089992   2.807173   4.128435
    41  H    8.737285   8.513496   1.088327   2.967151   4.311803
    42  H    3.508126   3.364091   7.273514   4.562675   3.264066
    43  H    3.761301   4.228893   6.416318   3.930213   2.537508
    44  H    5.023074   5.096982   6.805459   4.296482   3.123117
    45  H    5.723060   5.273649   5.230775   2.687977   2.098505
    46  H    4.700829   5.002364   4.338263   2.120173   1.079644
    47  H    9.909419   8.759453   7.789252   7.512941   8.199787
    48  H    9.515926   9.555923   1.090000   3.722150   4.927310
                   36         37         38         39         40
    36  C    0.000000
    37  C    1.504410   0.000000
    38  O    4.435191   2.966013   0.000000
    39  S    5.002495   3.967007   2.617233   0.000000
    40  H    6.359665   5.095179   2.591218   2.376369   0.000000
    41  H    6.755573   5.415946   2.795700   2.380831   1.771277
    42  H    1.085331   2.153484   5.087538   5.865553   7.225764
    43  H    1.085762   2.138694   4.815234   4.804641   6.484973
    44  H    1.087928   2.140477   4.849775   5.467854   6.585470
    45  H    2.190209   1.093825   2.754077   4.307066   4.909015
    46  H    2.670414   2.144537   3.280382   2.651558   4.628391
    47  H    9.723392   8.438979   6.789456   8.236434   8.033391
    48  H    7.300339   6.152026   3.902563   2.425068   1.784999
                   41         42         43         44         45
    41  H    0.000000
    42  H    7.481903   0.000000
    43  H    6.798415   1.752358   0.000000
    44  H    7.239196   1.761985   1.766662   0.000000
    45  H    5.453732   2.757146   3.028939   2.377636   0.000000
    46  H    4.677771   3.448159   2.269289   3.394354   3.040661
    47  H    6.766110   9.691673  10.134929  10.495205   8.404292
    48  H    1.775848   8.180961   7.181327   7.641231   6.226056
                   46         47         48
    46  H    0.000000
    47  H    8.763645   0.000000
    48  H    5.075224   8.500215   0.000000
 Symmetry turned off by external request.
 Stoichiometry    C16H24N2O5S
 Framework group  C1[X(C16H24N2O5S)]
 Deg. of freedom   138
 Full point group                 C1      NOp   1
 Rotational constants (GHZ):           0.2868020           0.1672855           0.1255992
 Leave Link  202 at Sun Apr  9 10:19:50 2023, MaxMem=  2684354560 cpu:               0.1 elap:               0.0
 (Enter /opt/gaussian/g16/l301.exe)
 Standard basis: def2TZVP (5D, 7F)
 Ernie: Thresh=  0.10000D-02 Tol=  0.10000D-05 Strict=F.
   894 basis functions,  1434 primitive gaussians,  1014 cartesian basis functions
    95 alpha electrons       95 beta electrons
       nuclear repulsion energy      2433.5538984606 Hartrees.
 IExCor= 4336 DFT=T Ex+Corr=M062X ExCW=0 ScaHFX=  0.540000
 ScaDFX=  1.000000  1.000000  1.000000  1.000000 ScalE2=  1.000000  1.000000
 IRadAn=      5 IRanWt=     -1 IRanGd=            0 ICorTp=0 IEmpDi=131
 NAtoms=   48 NActive=   48 NUniq=   48 SFac= 1.00D+00 NAtFMM=   60 NAOKFM=F Big=F
 Integral buffers will be    131072 words long.
 Raffenetti 2 integral format.
 Two-electron integral symmetry is turned off.
 R6Disp:  Grimme-D3 Dispersion energy=       -0.0041546020 Hartrees.
 Nuclear repulsion after empirical dispersion term =     2433.5497438587 Hartrees.
 Leave Link  301 at Sun Apr  9 10:19:51 2023, MaxMem=  2684354560 cpu:               1.0 elap:               0.1
 (Enter /opt/gaussian/g16/l302.exe)
 NPDir=0 NMtPBC=     1 NCelOv=     1 NCel=       1 NClECP=     1 NCelD=      1
         NCelK=      1 NCelE2=     1 NClLst=     1 CellRange=     0.0.
 One-electron integrals computed using PRISM.
   1 Symmetry operations used in ECPInt.
 ECPInt:  NShTT=   65703 NPrTT=  200010 LenC2=   56023 LenP2D=  118697.
 LDataN:  DoStor=T MaxTD1= 6 Len=  172
 NBasis=   894 RedAO= T EigKep=  3.27D-05  NBF=   894
 NBsUse=   894 1.00D-06 EigRej= -1.00D+00 NBFU=   894
 Precomputing XC quadrature grid using
 IXCGrd= 4 IRadAn=           5 IRanWt=          -1 IRanGd=           0 AccXCQ= 0.00D+00.
 Generated NRdTot=       0 NPtTot=           0 NUsed=           0 NTot=          32
 NSgBfM=   998   996   996   996   998 MxSgAt=    48 MxSgA2=    48.
 Leave Link  302 at Sun Apr  9 10:19:53 2023, MaxMem=  2684354560 cpu:              39.1 elap:               2.4
 (Enter /opt/gaussian/g16/l303.exe)
 DipDrv:  MaxL=1.
 Leave Link  303 at Sun Apr  9 10:19:53 2023, MaxMem=  2684354560 cpu:               4.2 elap:               0.3
 (Enter /opt/gaussian/g16/l401.exe)
 ExpMin= 9.52D-02 ExpMax= 6.07D+04 ExpMxC= 2.07D+03 IAcc=3 IRadAn=         5 AccDes= 0.00D+00
 Harris functional with IExCor= 1009 and IRadAn=       5 diagonalized for initial guess.
 HarFok:  IExCor= 1009 AccDes= 0.00D+00 IRadAn=         5 IDoV= 1 UseB2=F ITyADJ=14
 ICtDFT=  3500011 ScaDFX=  1.000000  1.000000  1.000000  1.000000
 FoFCou: FMM=F IPFlag=           0 FMFlag=      100000 FMFlg1=           0
         NFxFlg=           0 DoJE=T BraDBF=F KetDBF=T FulRan=T
         wScrn=  0.000000 ICntrl=       500 IOpCl=  0 I1Cent=   200000004 NGrid=           0
         NMat0=    1 NMatS0=      1 NMatT0=    0 NMatD0=    1 NMtDS0=    0 NMtDT0=    0
 Symmetry not used in FoFCou.
 Harris En= -1507.20187539961    
 JPrj=0 DoOrth=F DoCkMO=F.
 Leave Link  401 at Sun Apr  9 10:20:02 2023, MaxMem=  2684354560 cpu:             136.2 elap:               8.5
 (Enter /opt/gaussian/g16/l502.exe)
 Two-electron integral symmetry not used.
 Closed shell SCF:
 Using DIIS extrapolation, IDIIS=  1040.
 NGot=  2684354560 LenX=  2682275214 LenY=  2681246004
 Requested convergence on RMS density matrix=1.00D-08 within 128 cycles.
 Requested convergence on MAX density matrix=1.00D-06.
 Requested convergence on             energy=1.00D-06.
 No special actions if energy rises.
 Fock matrices will be formed incrementally for  20 cycles.
 Integral accuracy reduced to 1.0D-05 until final iterations.

 Cycle   1  Pass 0  IDiag  1:
 FoFJK:  IHMeth= 1 ICntrl=       0 DoSepK=F KAlg= 0 I1Cent=           0 FoldK=F
 IRaf= 780000000 NMat=       1 IRICut=       1 DoRegI=T DoRafI=F ISym2E= 0 IDoP0=0 IntGTp=1.
 FoFCou: FMM=F IPFlag=           0 FMFlag=      100000 FMFlg1=           0
         NFxFlg=           0 DoJE=F BraDBF=F KetDBF=F FulRan=T
         wScrn=  0.000000 ICntrl=         0 IOpCl=  0 I1Cent=           0 NGrid=           0
         NMat0=    1 NMatS0=      1 NMatT0=    0 NMatD0=    1 NMtDS0=    0 NMtDT0=    0
 Symmetry not used in FoFCou.
 E= -1507.08547007107    
 DIIS: error= 1.34D-02 at cycle   1 NSaved=   1.
 NSaved= 1 IEnMin= 1 EnMin= -1507.08547007107     IErMin= 1 ErrMin= 1.34D-02
 ErrMax= 1.34D-02  0.00D+00 EMaxC= 1.00D-01 BMatC= 1.01D+00 BMatP= 1.01D+00
 IDIUse=3 WtCom= 8.66D-01 WtEn= 1.34D-01
 Coeff-Com:  0.100D+01
 Coeff-En:   0.100D+01
 Coeff:      0.100D+01
 Gap=     0.243 Goal=   None    Shift=    0.000
 GapD=    0.243 DampG=1.000 DampE=0.500 DampFc=0.5000 IDamp=-1.
 Damping current iteration by 5.00D-01
 RMSDP=3.56D-03 MaxDP=7.87D-01              OVMax= 3.00D-01

 Cycle   2  Pass 0  IDiag  1:
 RMSU=  1.78D-03    CP:  1.01D+00
 E= -1507.42161140592     Delta-E=       -0.336141334854 Rises=F Damp=T
 DIIS: error= 3.51D-03 at cycle   2 NSaved=   2.
 NSaved= 2 IEnMin= 2 EnMin= -1507.42161140592     IErMin= 2 ErrMin= 3.51D-03
 ErrMax= 3.51D-03  0.00D+00 EMaxC= 1.00D-01 BMatC= 9.50D-02 BMatP= 1.01D+00
 IDIUse=3 WtCom= 9.65D-01 WtEn= 3.51D-02
 Coeff-Com:  0.180D-01 0.982D+00
 Coeff-En:   0.904D-01 0.910D+00
 Coeff:      0.205D-01 0.979D+00
 Gap=     0.254 Goal=   None    Shift=    0.000
 RMSDP=1.23D-03 MaxDP=2.52D-01 DE=-3.36D-01 OVMax= 2.35D-01

 Cycle   3  Pass 0  IDiag  1:
 RMSU=  1.06D-03    CP:  9.93D-01  6.54D-01
 E= -1507.80288926343     Delta-E=       -0.381277857502 Rises=F Damp=F
 DIIS: error= 3.62D-03 at cycle   3 NSaved=   3.
 NSaved= 3 IEnMin= 3 EnMin= -1507.80288926343     IErMin= 2 ErrMin= 3.51D-03
 ErrMax= 3.62D-03  0.00D+00 EMaxC= 1.00D-01 BMatC= 5.69D-02 BMatP= 9.50D-02
 IDIUse=3 WtCom= 9.64D-01 WtEn= 3.62D-02
 Coeff-Com: -0.718D-01 0.448D+00 0.624D+00
 Coeff-En:   0.000D+00 0.000D+00 0.100D+01
 Coeff:     -0.692D-01 0.431D+00 0.638D+00
 Gap=     0.174 Goal=   None    Shift=    0.000
 RMSDP=4.23D-04 MaxDP=2.60D-02 DE=-3.81D-01 OVMax= 9.21D-02

 Cycle   4  Pass 0  IDiag  1:
 RMSU=  3.60D-04    CP:  9.95D-01  7.61D-01  8.93D-01
 E= -1507.84536539220     Delta-E=       -0.042476128776 Rises=F Damp=F
 DIIS: error= 1.47D-03 at cycle   4 NSaved=   4.
 NSaved= 4 IEnMin= 4 EnMin= -1507.84536539220     IErMin= 4 ErrMin= 1.47D-03
 ErrMax= 1.47D-03  0.00D+00 EMaxC= 1.00D-01 BMatC= 9.89D-03 BMatP= 5.69D-02
 IDIUse=3 WtCom= 9.85D-01 WtEn= 1.47D-02
 Coeff-Com: -0.336D-01 0.907D-01 0.333D+00 0.610D+00
 Coeff-En:   0.000D+00 0.000D+00 0.108D+00 0.892D+00
 Coeff:     -0.331D-01 0.894D-01 0.329D+00 0.614D+00
 Gap=     0.173 Goal=   None    Shift=    0.000
 RMSDP=1.45D-04 MaxDP=1.51D-02 DE=-4.25D-02 OVMax= 2.72D-02

 Cycle   5  Pass 0  IDiag  1:
 RMSU=  9.23D-05    CP:  9.94D-01  7.43D-01  9.36D-01  7.29D-01
 E= -1507.85356563830     Delta-E=       -0.008200246101 Rises=F Damp=F
 DIIS: error= 2.53D-04 at cycle   5 NSaved=   5.
 NSaved= 5 IEnMin= 5 EnMin= -1507.85356563830     IErMin= 5 ErrMin= 2.53D-04
 ErrMax= 2.53D-04  0.00D+00 EMaxC= 1.00D-01 BMatC= 3.21D-04 BMatP= 9.89D-03
 IDIUse=3 WtCom= 9.97D-01 WtEn= 2.53D-03
 Coeff-Com: -0.774D-02 0.114D-01 0.100D+00 0.238D+00 0.658D+00
 Coeff-En:   0.000D+00 0.000D+00 0.000D+00 0.000D+00 0.100D+01
 Coeff:     -0.772D-02 0.114D-01 0.999D-01 0.237D+00 0.659D+00
 Gap=     0.174 Goal=   None    Shift=    0.000
 RMSDP=4.04D-05 MaxDP=4.28D-03 DE=-8.20D-03 OVMax= 6.01D-03

 Cycle   6  Pass 0  IDiag  1:
 RMSU=  3.34D-05    CP:  9.93D-01  7.34D-01  9.47D-01  7.54D-01  9.50D-01
 E= -1507.85387936560     Delta-E=       -0.000313727299 Rises=F Damp=F
 DIIS: error= 1.04D-04 at cycle   6 NSaved=   6.
 NSaved= 6 IEnMin= 6 EnMin= -1507.85387936560     IErMin= 6 ErrMin= 1.04D-04
 ErrMax= 1.04D-04  0.00D+00 EMaxC= 1.00D-01 BMatC= 4.86D-05 BMatP= 3.21D-04
 IDIUse=3 WtCom= 9.99D-01 WtEn= 1.04D-03
 Coeff-Com:  0.158D-02-0.734D-02 0.133D-03 0.115D-01 0.266D+00 0.729D+00
 Coeff-En:   0.000D+00 0.000D+00 0.000D+00 0.000D+00 0.000D+00 0.100D+01
 Coeff:      0.158D-02-0.733D-02 0.133D-03 0.115D-01 0.265D+00 0.729D+00
 Gap=     0.175 Goal=   None    Shift=    0.000
 RMSDP=1.85D-05 MaxDP=1.28D-03 DE=-3.14D-04 OVMax= 3.74D-03

 Cycle   7  Pass 0  IDiag  1:
 RMSU=  1.38D-05    CP:  9.93D-01  7.32D-01  9.53D-01  7.63D-01  1.04D+00
                    CP:  1.13D+00
 E= -1507.85395005739     Delta-E=       -0.000070691791 Rises=F Damp=F
 DIIS: error= 4.36D-05 at cycle   7 NSaved=   7.
 NSaved= 7 IEnMin= 7 EnMin= -1507.85395005739     IErMin= 7 ErrMin= 4.36D-05
 ErrMax= 4.36D-05  0.00D+00 EMaxC= 1.00D-01 BMatC= 6.48D-06 BMatP= 4.86D-05
 IDIUse=1 WtCom= 1.00D+00 WtEn= 0.00D+00
 Coeff-Com:  0.190D-02-0.451D-02-0.135D-01-0.360D-01-0.124D-01 0.227D+00
 Coeff-Com:  0.837D+00
 Coeff:      0.190D-02-0.451D-02-0.135D-01-0.360D-01-0.124D-01 0.227D+00
 Coeff:      0.837D+00
 Gap=     0.175 Goal=   None    Shift=    0.000
 RMSDP=1.56D-05 MaxDP=2.01D-03 DE=-7.07D-05 OVMax= 2.58D-03

 Cycle   8  Pass 0  IDiag  1:
 RMSU=  9.81D-06    CP:  9.93D-01  7.28D-01  9.55D-01  7.68D-01  1.11D+00
                    CP:  1.28D+00  1.41D+00
 E= -1507.85396324287     Delta-E=       -0.000013185474 Rises=F Damp=F
 DIIS: error= 2.10D-05 at cycle   8 NSaved=   8.
 NSaved= 8 IEnMin= 8 EnMin= -1507.85396324287     IErMin= 8 ErrMin= 2.10D-05
 ErrMax= 2.10D-05  0.00D+00 EMaxC= 1.00D-01 BMatC= 1.95D-06 BMatP= 6.48D-06
 IDIUse=1 WtCom= 1.00D+00 WtEn= 0.00D+00
 Coeff-Com:  0.783D-03-0.129D-02-0.648D-02-0.217D-01-0.444D-01 0.246D-02
 Coeff-Com:  0.419D+00 0.651D+00
 Coeff:      0.783D-03-0.129D-02-0.648D-02-0.217D-01-0.444D-01 0.246D-02
 Coeff:      0.419D+00 0.651D+00
 Gap=     0.175 Goal=   None    Shift=    0.000
 RMSDP=1.25D-05 MaxDP=1.12D-03 DE=-1.32D-05 OVMax= 6.15D-04

 Cycle   9  Pass 0  IDiag  1:
 RMSU=  7.64D-06    CP:  9.93D-01  7.26D-01  9.56D-01  7.68D-01  1.13D+00
                    CP:  1.38D+00  1.86D+00  1.58D+00
 E= -1507.85396003141     Delta-E=        0.000003211456 Rises=F Damp=F
 DIIS: error= 1.88D-05 at cycle   9 NSaved=   9.
 NSaved= 9 IEnMin= 8 EnMin= -1507.85396324287     IErMin= 9 ErrMin= 1.88D-05
 ErrMax= 1.88D-05  0.00D+00 EMaxC= 1.00D-01 BMatC= 4.12D-07 BMatP= 1.95D-06
 IDIUse=1 WtCom= 1.00D+00 WtEn= 0.00D+00
 Coeff-Com:  0.164D-03-0.118D-03-0.121D-02-0.658D-02-0.196D-01-0.273D-01
 Coeff-Com:  0.103D+00 0.324D+00 0.627D+00
 Coeff:      0.164D-03-0.118D-03-0.121D-02-0.658D-02-0.196D-01-0.273D-01
 Coeff:      0.103D+00 0.324D+00 0.627D+00
 Gap=     0.175 Goal=   None    Shift=    0.000
 RMSDP=1.54D-05 MaxDP=1.02D-03 DE= 3.21D-06 OVMax= 2.60D-04

 Cycle  10  Pass 0  IDiag  1:
 RMSU=  5.47D-06    CP:  9.93D-01  7.25D-01  9.56D-01  7.69D-01  1.15D+00
                    CP:  1.45D+00  2.32D+00  2.49D+00  2.14D+00
 E= -1507.85395415175     Delta-E=        0.000005879663 Rises=F Damp=F
 DIIS: error= 2.82D-05 at cycle  10 NSaved=  10.
 NSaved=10 IEnMin= 8 EnMin= -1507.85396324287     IErMin= 9 ErrMin= 1.88D-05
 ErrMax= 2.82D-05  0.00D+00 EMaxC= 1.00D-01 BMatC= 4.34D-07 BMatP= 4.12D-07
 IDIUse=1 WtCom= 1.00D+00 WtEn= 0.00D+00
 Coeff-Com:  0.177D-03-0.118D-03-0.133D-02-0.725D-02-0.219D-01-0.310D-01
 Coeff-Com:  0.113D+00 0.364D+00 0.709D+00-0.125D+00
 Coeff:      0.177D-03-0.118D-03-0.133D-02-0.725D-02-0.219D-01-0.310D-01
 Coeff:      0.113D+00 0.364D+00 0.709D+00-0.125D+00
 Gap=     0.175 Goal=   None    Shift=    0.000
 RMSDP=4.35D-06 MaxDP=3.18D-04 DE= 5.88D-06 OVMax= 2.19D-05

 Initial convergence to 1.0D-05 achieved.  Increase integral accuracy.
 Cycle  11  Pass 1  IDiag  1:
 E= -1507.85387442102     Delta-E=        0.000079730726 Rises=F Damp=F
 DIIS: error= 2.90D-04 at cycle   1 NSaved=   1.
 NSaved= 1 IEnMin= 1 EnMin= -1507.85387442102     IErMin= 1 ErrMin= 2.90D-04
 ErrMax= 2.90D-04  0.00D+00 EMaxC= 1.00D-01 BMatC= 7.94D-05 BMatP= 7.94D-05
 IDIUse=3 WtCom= 9.97D-01 WtEn= 2.90D-03
 Coeff-Com:  0.100D+01
 Coeff-En:   0.100D+01
 Coeff:      0.100D+01
 Gap=     0.175 Goal=   None    Shift=    0.000
 RMSDP=4.35D-06 MaxDP=3.18D-04 DE= 7.97D-05 OVMax= 7.73D-04

 Cycle  12  Pass 1  IDiag  1:
 RMSU=  3.83D-04    CP:  9.97D-01
 E= -1507.85392395273     Delta-E=       -0.000049531704 Rises=F Damp=F
 DIIS: error= 6.41D-06 at cycle   2 NSaved=   2.
 NSaved= 2 IEnMin= 2 EnMin= -1507.85392395273     IErMin= 2 ErrMin= 6.41D-06
 ErrMax= 6.41D-06  0.00D+00 EMaxC= 1.00D-01 BMatC= 1.34D-07 BMatP= 7.94D-05
 IDIUse=1 WtCom= 1.00D+00 WtEn= 0.00D+00
 Coeff-Com: -0.148D-01 0.101D+01
 Coeff:     -0.148D-01 0.101D+01
 Gap=     0.175 Goal=   None    Shift=    0.000
 RMSDP=1.39D-05 MaxDP=1.19D-03 DE=-4.95D-05 OVMax= 2.02D-04

 Cycle  13  Pass 1  IDiag  1:
 RMSU=  4.79D-06    CP:  9.97D-01  1.03D+00
 E= -1507.85392387392     Delta-E=        0.000000078808 Rises=F Damp=F
 DIIS: error= 1.35D-05 at cycle   3 NSaved=   3.
 NSaved= 3 IEnMin= 2 EnMin= -1507.85392395273     IErMin= 2 ErrMin= 6.41D-06
 ErrMax= 1.35D-05  0.00D+00 EMaxC= 1.00D-01 BMatC= 2.53D-07 BMatP= 1.34D-07
 IDIUse=1 WtCom= 1.00D+00 WtEn= 0.00D+00
 Coeff-Com: -0.103D-01 0.612D+00 0.398D+00
 Coeff:     -0.103D-01 0.612D+00 0.398D+00
 Gap=     0.175 Goal=   None    Shift=    0.000
 RMSDP=7.21D-07 MaxDP=5.49D-05 DE= 7.88D-08 OVMax= 1.62D-04

 Cycle  14  Pass 1  IDiag  1:
 RMSU=  6.98D-07    CP:  9.97D-01  1.03D+00  9.87D-01
 E= -1507.85392410357     Delta-E=       -0.000000229650 Rises=F Damp=F
 DIIS: error= 1.46D-06 at cycle   4 NSaved=   4.
 NSaved= 4 IEnMin= 4 EnMin= -1507.85392410357     IErMin= 4 ErrMin= 1.46D-06
 ErrMax= 1.46D-06  0.00D+00 EMaxC= 1.00D-01 BMatC= 4.21D-09 BMatP= 1.34D-07
 IDIUse=1 WtCom= 1.00D+00 WtEn= 0.00D+00
 Coeff-Com: -0.206D-02 0.111D+00 0.132D+00 0.759D+00
 Coeff:     -0.206D-02 0.111D+00 0.132D+00 0.759D+00
 Gap=     0.175 Goal=   None    Shift=    0.000
 RMSDP=3.01D-07 MaxDP=1.70D-05 DE=-2.30D-07 OVMax= 2.12D-05

 Cycle  15  Pass 1  IDiag  1:
 RMSU=  1.55D-07    CP:  9.97D-01  1.04D+00  1.02D+00  9.67D-01
 E= -1507.85392410736     Delta-E=       -0.000000003789 Rises=F Damp=F
 DIIS: error= 6.42D-07 at cycle   5 NSaved=   5.
 NSaved= 5 IEnMin= 5 EnMin= -1507.85392410736     IErMin= 5 ErrMin= 6.42D-07
 ErrMax= 6.42D-07  0.00D+00 EMaxC= 1.00D-01 BMatC= 1.23D-09 BMatP= 4.21D-09
 IDIUse=1 WtCom= 1.00D+00 WtEn= 0.00D+00
 Coeff-Com:  0.567D-03-0.396D-01 0.433D-02 0.393D+00 0.641D+00
 Coeff:      0.567D-03-0.396D-01 0.433D-02 0.393D+00 0.641D+00
 Gap=     0.175 Goal=   None    Shift=    0.000
 RMSDP=1.15D-07 MaxDP=5.88D-06 DE=-3.79D-09 OVMax= 2.18D-05

 Cycle  16  Pass 1  IDiag  1:
 RMSU=  6.16D-08    CP:  9.97D-01  1.04D+00  1.03D+00  1.02D+00  1.09D+00
 E= -1507.85392410875     Delta-E=       -0.000000001394 Rises=F Damp=F
 DIIS: error= 1.85D-07 at cycle   6 NSaved=   6.
 NSaved= 6 IEnMin= 6 EnMin= -1507.85392410875     IErMin= 6 ErrMin= 1.85D-07
 ErrMax= 1.85D-07  0.00D+00 EMaxC= 1.00D-01 BMatC= 7.08D-11 BMatP= 1.23D-09
 IDIUse=1 WtCom= 1.00D+00 WtEn= 0.00D+00
 Coeff-Com:  0.318D-03-0.199D-01-0.892D-02 0.565D-01 0.199D+00 0.773D+00
 Coeff:      0.318D-03-0.199D-01-0.892D-02 0.565D-01 0.199D+00 0.773D+00
 Gap=     0.175 Goal=   None    Shift=    0.000
 RMSDP=3.46D-08 MaxDP=2.70D-06 DE=-1.39D-09 OVMax= 4.01D-06

 Cycle  17  Pass 1  IDiag  1:
 RMSU=  2.26D-08    CP:  9.97D-01  1.04D+00  1.03D+00  1.03D+00  1.25D+00
                    CP:  1.07D+00
 E= -1507.85392410887     Delta-E=       -0.000000000114 Rises=F Damp=F
 DIIS: error= 9.73D-08 at cycle   7 NSaved=   7.
 NSaved= 7 IEnMin= 7 EnMin= -1507.85392410887     IErMin= 7 ErrMin= 9.73D-08
 ErrMax= 9.73D-08  0.00D+00 EMaxC= 1.00D-01 BMatC= 2.13D-11 BMatP= 7.08D-11
 IDIUse=1 WtCom= 1.00D+00 WtEn= 0.00D+00
 Coeff-Com: -0.163D-04 0.238D-02-0.607D-02-0.974D-01-0.872D-01 0.407D+00
 Coeff-Com:  0.782D+00
 Coeff:     -0.163D-04 0.238D-02-0.607D-02-0.974D-01-0.872D-01 0.407D+00
 Coeff:      0.782D+00
 Gap=     0.175 Goal=   None    Shift=    0.000
 RMSDP=1.97D-08 MaxDP=1.32D-06 DE=-1.14D-10 OVMax= 7.19D-06

 Cycle  18  Pass 1  IDiag  1:
 RMSU=  1.27D-08    CP:  9.97D-01  1.04D+00  1.03D+00  1.03D+00  1.30D+00
                    CP:  1.24D+00  1.19D+00
 E= -1507.85392410893     Delta-E=       -0.000000000065 Rises=F Damp=F
 DIIS: error= 3.95D-08 at cycle   8 NSaved=   8.
 NSaved= 8 IEnMin= 8 EnMin= -1507.85392410893     IErMin= 8 ErrMin= 3.95D-08
 ErrMax= 3.95D-08  0.00D+00 EMaxC= 1.00D-01 BMatC= 4.16D-12 BMatP= 2.13D-11
 IDIUse=1 WtCom= 1.00D+00 WtEn= 0.00D+00
 Coeff-Com: -0.438D-04 0.343D-02-0.192D-02-0.565D-01-0.660D-01 0.957D-01
 Coeff-Com:  0.404D+00 0.621D+00
 Coeff:     -0.438D-04 0.343D-02-0.192D-02-0.565D-01-0.660D-01 0.957D-01
 Coeff:      0.404D+00 0.621D+00
 Gap=     0.175 Goal=   None    Shift=    0.000
 RMSDP=6.00D-09 MaxDP=5.76D-07 DE=-6.50D-11 OVMax= 8.82D-07

 SCF Done:  E(RM062X) =  -1507.85392411     A.U. after   18 cycles
            NFock= 18  Conv=0.60D-08     -V/T= 2.0039
 KE= 1.502062478310D+03 PE=-8.405657774843D+03 EE= 2.962191628565D+03
 Leave Link  502 at Sun Apr  9 10:38:48 2023, MaxMem=  2684354560 cpu:           18015.7 elap:            1126.2
 (Enter /opt/gaussian/g16/l601.exe)
 Copying SCF densities to generalized density rwf, IOpCl= 0 IROHF=0.

 **********************************************************************

            Population analysis using the SCF density.

 **********************************************************************

 Alpha  occ. eigenvalues --  -89.88405 -19.65071 -19.63864 -19.62089 -19.61244
 Alpha  occ. eigenvalues --  -19.58743 -14.82249 -14.77429 -10.66060 -10.64417
 Alpha  occ. eigenvalues --  -10.61632 -10.60798 -10.60677 -10.60606 -10.60541
 Alpha  occ. eigenvalues --  -10.59417 -10.57329 -10.56174 -10.55113 -10.55070
 Alpha  occ. eigenvalues --  -10.54355 -10.53560 -10.52217 -10.51515  -8.24384
 Alpha  occ. eigenvalues --   -6.16328  -6.16103  -6.15894  -1.19845  -1.18186
 Alpha  occ. eigenvalues --   -1.16629  -1.14477  -1.12708  -1.10896  -1.01432
 Alpha  occ. eigenvalues --   -0.94429  -0.90104  -0.89627  -0.88881  -0.87126
 Alpha  occ. eigenvalues --   -0.86552  -0.80401  -0.79666  -0.76761  -0.74434
 Alpha  occ. eigenvalues --   -0.73158  -0.71051  -0.68709  -0.66882  -0.66106
 Alpha  occ. eigenvalues --   -0.64682  -0.63461  -0.60568  -0.59909  -0.59398
 Alpha  occ. eigenvalues --   -0.58973  -0.57947  -0.56159  -0.55027  -0.54743
 Alpha  occ. eigenvalues --   -0.53524  -0.52938  -0.52677  -0.51743  -0.51509
 Alpha  occ. eigenvalues --   -0.51001  -0.49979  -0.49617  -0.49125  -0.49004
 Alpha  occ. eigenvalues --   -0.48167  -0.47166  -0.46793  -0.46209  -0.45919
 Alpha  occ. eigenvalues --   -0.45114  -0.44827  -0.44198  -0.43975  -0.42970
 Alpha  occ. eigenvalues --   -0.42924  -0.42221  -0.40859  -0.39231  -0.37842
 Alpha  occ. eigenvalues --   -0.37132  -0.36781  -0.35689  -0.35348  -0.34141
 Alpha  occ. eigenvalues --   -0.33573  -0.31317  -0.30366  -0.28670  -0.22001
 Alpha virt. eigenvalues --   -0.04502  -0.01279   0.04489   0.04714   0.05780
 Alpha virt. eigenvalues --    0.05898   0.07058   0.07770   0.08470   0.08563
 Alpha virt. eigenvalues --    0.08979   0.09865   0.10058   0.10851   0.11266
 Alpha virt. eigenvalues --    0.11747   0.12068   0.12807   0.13380   0.13605
 Alpha virt. eigenvalues --    0.14006   0.14531   0.14647   0.15009   0.15279
 Alpha virt. eigenvalues --    0.15755   0.16363   0.16448   0.17268   0.17880
 Alpha virt. eigenvalues --    0.18623   0.18677   0.19078   0.19476   0.19895
 Alpha virt. eigenvalues --    0.20779   0.21011   0.21568   0.21791   0.22221
 Alpha virt. eigenvalues --    0.22483   0.23304   0.23590   0.24551   0.24740
 Alpha virt. eigenvalues --    0.24841   0.25183   0.25759   0.26191   0.26376
 Alpha virt. eigenvalues --    0.26992   0.27912   0.28124   0.28348   0.28880
 Alpha virt. eigenvalues --    0.29044   0.29902   0.30196   0.30486   0.31167
 Alpha virt. eigenvalues --    0.31795   0.31929   0.32462   0.32601   0.33011
 Alpha virt. eigenvalues --    0.33142   0.34266   0.34791   0.35175   0.35685
 Alpha virt. eigenvalues --    0.36148   0.36427   0.37187   0.37653   0.38221
 Alpha virt. eigenvalues --    0.38574   0.39258   0.39671   0.40048   0.40115
 Alpha virt. eigenvalues --    0.40942   0.41069   0.41375   0.41743   0.42051
 Alpha virt. eigenvalues --    0.42488   0.42647   0.43498   0.43625   0.44068
 Alpha virt. eigenvalues --    0.44687   0.44969   0.44988   0.45461   0.45570
 Alpha virt. eigenvalues --    0.46141   0.46456   0.46744   0.46975   0.47338
 Alpha virt. eigenvalues --    0.47818   0.48104   0.48737   0.48946   0.49446
 Alpha virt. eigenvalues --    0.49660   0.50130   0.50471   0.50576   0.50981
 Alpha virt. eigenvalues --    0.51150   0.51353   0.51791   0.52215   0.52624
 Alpha virt. eigenvalues --    0.53024   0.53146   0.53592   0.53652   0.54433
 Alpha virt. eigenvalues --    0.55028   0.55144   0.55875   0.56222   0.56638
 Alpha virt. eigenvalues --    0.57509   0.57923   0.58613   0.58963   0.59413
 Alpha virt. eigenvalues --    0.59477   0.59801   0.60707   0.61529   0.62224
 Alpha virt. eigenvalues --    0.62907   0.63120   0.63457   0.63801   0.64598
 Alpha virt. eigenvalues --    0.65371   0.65955   0.67057   0.67421   0.68245
 Alpha virt. eigenvalues --    0.68386   0.69169   0.69700   0.69800   0.70662
 Alpha virt. eigenvalues --    0.71230   0.72121   0.72472   0.72615   0.73921
 Alpha virt. eigenvalues --    0.74240   0.74650   0.75322   0.77294   0.78169
 Alpha virt. eigenvalues --    0.78398   0.78856   0.79332   0.80640   0.81028
 Alpha virt. eigenvalues --    0.81165   0.82034   0.82867   0.83309   0.83784
 Alpha virt. eigenvalues --    0.84688   0.84904   0.85454   0.86673   0.87065
 Alpha virt. eigenvalues --    0.87480   0.88234   0.88672   0.89752   0.89995
 Alpha virt. eigenvalues --    0.90892   0.91687   0.92156   0.92792   0.93285
 Alpha virt. eigenvalues --    0.94035   0.94747   0.95479   0.96309   0.96929
 Alpha virt. eigenvalues --    0.97427   0.97790   0.98624   0.99214   0.99850
 Alpha virt. eigenvalues --    1.00138   1.00546   1.01700   1.02052   1.03649
 Alpha virt. eigenvalues --    1.03719   1.04678   1.04990   1.05308   1.05867
 Alpha virt. eigenvalues --    1.06688   1.07118   1.08451   1.08749   1.09619
 Alpha virt. eigenvalues --    1.10065   1.11036   1.11912   1.12429   1.12791
 Alpha virt. eigenvalues --    1.13389   1.13846   1.14272   1.15335   1.15656
 Alpha virt. eigenvalues --    1.16520   1.17216   1.17754   1.18698   1.19726
 Alpha virt. eigenvalues --    1.20975   1.21749   1.21844   1.22335   1.22993
 Alpha virt. eigenvalues --    1.23624   1.25571   1.26567   1.27160   1.27755
 Alpha virt. eigenvalues --    1.28059   1.28678   1.29695   1.30382   1.30903
 Alpha virt. eigenvalues --    1.31287   1.33136   1.33970   1.34411   1.35350
 Alpha virt. eigenvalues --    1.36129   1.36981   1.38176   1.38709   1.39629
 Alpha virt. eigenvalues --    1.40287   1.40713   1.42054   1.42223   1.43279
 Alpha virt. eigenvalues --    1.44719   1.45330   1.46352   1.49707   1.49833
 Alpha virt. eigenvalues --    1.50728   1.51057   1.52057   1.52182   1.53316
 Alpha virt. eigenvalues --    1.53352   1.54907   1.55242   1.55626   1.56071
 Alpha virt. eigenvalues --    1.56646   1.56949   1.57087   1.57597   1.57912
 Alpha virt. eigenvalues --    1.58395   1.59204   1.59485   1.59855   1.60767
 Alpha virt. eigenvalues --    1.61076   1.61327   1.61778   1.62469   1.62773
 Alpha virt. eigenvalues --    1.63123   1.63480   1.64380   1.65032   1.65439
 Alpha virt. eigenvalues --    1.66006   1.66837   1.67279   1.67771   1.68684
 Alpha virt. eigenvalues --    1.69135   1.69831   1.70116   1.70410   1.71538
 Alpha virt. eigenvalues --    1.72116   1.72890   1.73380   1.73845   1.74627
 Alpha virt. eigenvalues --    1.75403   1.76225   1.77129   1.77863   1.78586
 Alpha virt. eigenvalues --    1.79586   1.79904   1.79926   1.81071   1.81730
 Alpha virt. eigenvalues --    1.82436   1.82680   1.83169   1.84255   1.85173
 Alpha virt. eigenvalues --    1.86070   1.86406   1.87269   1.87874   1.88253
 Alpha virt. eigenvalues --    1.89486   1.89670   1.90139   1.90657   1.91220
 Alpha virt. eigenvalues --    1.92234   1.92403   1.93363   1.93887   1.94107
 Alpha virt. eigenvalues --    1.94796   1.95231   1.96598   1.97391   1.97643
 Alpha virt. eigenvalues --    1.98530   1.98861   1.99825   2.00537   2.01429
 Alpha virt. eigenvalues --    2.02625   2.02981   2.03587   2.04432   2.05442
 Alpha virt. eigenvalues --    2.05896   2.06343   2.06835   2.08151   2.08760
 Alpha virt. eigenvalues --    2.09348   2.09762   2.10295   2.11698   2.12228
 Alpha virt. eigenvalues --    2.12698   2.12905   2.13726   2.14384   2.15246
 Alpha virt. eigenvalues --    2.15547   2.16289   2.16992   2.18479   2.19705
 Alpha virt. eigenvalues --    2.20144   2.20291   2.20949   2.21387   2.22550
 Alpha virt. eigenvalues --    2.23009   2.24081   2.25045   2.25514   2.26468
 Alpha virt. eigenvalues --    2.26697   2.26865   2.28521   2.28737   2.28849
 Alpha virt. eigenvalues --    2.29618   2.29873   2.30338   2.31079   2.31846
 Alpha virt. eigenvalues --    2.32763   2.33245   2.33936   2.34517   2.35084
 Alpha virt. eigenvalues --    2.35899   2.37060   2.38121   2.38943   2.39638
 Alpha virt. eigenvalues --    2.40324   2.42129   2.42832   2.43515   2.44299
 Alpha virt. eigenvalues --    2.44972   2.45389   2.45514   2.46663   2.47186
 Alpha virt. eigenvalues --    2.48127   2.48638   2.49939   2.50358   2.50519
 Alpha virt. eigenvalues --    2.51680   2.53645   2.54270   2.54895   2.55587
 Alpha virt. eigenvalues --    2.55993   2.56591   2.57460   2.57733   2.58353
 Alpha virt. eigenvalues --    2.59109   2.59467   2.60086   2.60729   2.61186
 Alpha virt. eigenvalues --    2.61950   2.62758   2.63839   2.64258   2.65092
 Alpha virt. eigenvalues --    2.66015   2.66542   2.66880   2.68564   2.68996
 Alpha virt. eigenvalues --    2.69461   2.69673   2.70507   2.71009   2.71518
 Alpha virt. eigenvalues --    2.71878   2.72547   2.72780   2.73525   2.74878
 Alpha virt. eigenvalues --    2.75263   2.76005   2.77519   2.78015   2.78627
 Alpha virt. eigenvalues --    2.79331   2.79530   2.79873   2.80437   2.81684
 Alpha virt. eigenvalues --    2.82137   2.82882   2.83252   2.83882   2.85102
 Alpha virt. eigenvalues --    2.85514   2.86648   2.87241   2.88001   2.88290
 Alpha virt. eigenvalues --    2.89330   2.90122   2.91186   2.91598   2.93426
 Alpha virt. eigenvalues --    2.94288   2.94355   2.94397   2.95786   2.96364
 Alpha virt. eigenvalues --    2.97486   2.98567   2.98667   2.99920   3.00476
 Alpha virt. eigenvalues --    3.01022   3.01202   3.01748   3.02086   3.02884
 Alpha virt. eigenvalues --    3.03627   3.04051   3.05651   3.05824   3.06754
 Alpha virt. eigenvalues --    3.07834   3.08113   3.09091   3.09670   3.10437
 Alpha virt. eigenvalues --    3.11080   3.11497   3.11865   3.12607   3.13132
 Alpha virt. eigenvalues --    3.13416   3.14483   3.14756   3.15758   3.16514
 Alpha virt. eigenvalues --    3.16994   3.17377   3.18630   3.18847   3.19235
 Alpha virt. eigenvalues --    3.19653   3.19971   3.20428   3.22027   3.22692
 Alpha virt. eigenvalues --    3.23106   3.23766   3.24420   3.24972   3.25225
 Alpha virt. eigenvalues --    3.25922   3.26262   3.26955   3.27228   3.27909
 Alpha virt. eigenvalues --    3.29574   3.30437   3.30713   3.31252   3.31484
 Alpha virt. eigenvalues --    3.32052   3.33138   3.33317   3.34032   3.34896
 Alpha virt. eigenvalues --    3.35094   3.35511   3.36216   3.37076   3.37337
 Alpha virt. eigenvalues --    3.37634   3.38228   3.38488   3.38722   3.39789
 Alpha virt. eigenvalues --    3.40253   3.40833   3.41808   3.42205   3.42367
 Alpha virt. eigenvalues --    3.42769   3.43352   3.43702   3.43875   3.45563
 Alpha virt. eigenvalues --    3.46286   3.46543   3.47793   3.48372   3.48892
 Alpha virt. eigenvalues --    3.49315   3.50276   3.50919   3.51211   3.52219
 Alpha virt. eigenvalues --    3.52790   3.53955   3.55363   3.55867   3.56712
 Alpha virt. eigenvalues --    3.57702   3.57828   3.58651   3.59622   3.60661
 Alpha virt. eigenvalues --    3.61386   3.61660   3.62138   3.63842   3.64101
 Alpha virt. eigenvalues --    3.65831   3.67292   3.68644   3.69546   3.70006
 Alpha virt. eigenvalues --    3.70934   3.71732   3.72577   3.73445   3.74448
 Alpha virt. eigenvalues --    3.74989   3.75993   3.76114   3.77711   3.77989
 Alpha virt. eigenvalues --    3.80036   3.81172   3.82164   3.82638   3.82931
 Alpha virt. eigenvalues --    3.84915   3.85908   3.87481   3.88435   3.89909
 Alpha virt. eigenvalues --    3.90642   3.91309   3.91814   3.93116   3.93589
 Alpha virt. eigenvalues --    3.94745   3.96084   3.96448   3.97959   3.98625
 Alpha virt. eigenvalues --    4.00687   4.00859   4.02861   4.04988   4.06349
 Alpha virt. eigenvalues --    4.07480   4.08713   4.09827   4.10500   4.11147
 Alpha virt. eigenvalues --    4.11249   4.12469   4.14407   4.14760   4.17348
 Alpha virt. eigenvalues --    4.19975   4.20787   4.22573   4.23832   4.24434
 Alpha virt. eigenvalues --    4.26870   4.27535   4.27927   4.28762   4.30076
 Alpha virt. eigenvalues --    4.30604   4.31985   4.32227   4.34060   4.37773
 Alpha virt. eigenvalues --    4.39319   4.40641   4.41498   4.41728   4.43009
 Alpha virt. eigenvalues --    4.44532   4.46007   4.46363   4.47919   4.49648
 Alpha virt. eigenvalues --    4.50900   4.51300   4.51920   4.55002   4.56358
 Alpha virt. eigenvalues --    4.58741   4.63271   4.64833   4.66734   4.67921
 Alpha virt. eigenvalues --    4.70176   4.72794   4.74720   4.76088   4.76598
 Alpha virt. eigenvalues --    4.77561   4.78093   4.81029   4.82874   4.83559
 Alpha virt. eigenvalues --    4.84652   4.86837   4.88933   4.89321   4.90246
 Alpha virt. eigenvalues --    4.91338   4.92622   4.93864   4.95160   4.96664
 Alpha virt. eigenvalues --    4.97740   4.98853   4.99637   5.01462   5.03740
 Alpha virt. eigenvalues --    5.08067   5.09253   5.13633   5.14667   5.19085
 Alpha virt. eigenvalues --    5.20421   5.23955   5.24626   5.24963   5.26339
 Alpha virt. eigenvalues --    5.26438   5.29477   5.30239   5.31306   5.36451
 Alpha virt. eigenvalues --    5.39309   5.41967   5.44247   5.45134   5.47232
 Alpha virt. eigenvalues --    5.49069   5.50148   5.52584   5.55357   5.57540
 Alpha virt. eigenvalues --    5.62561   5.62929   5.72011   5.75131   5.76556
 Alpha virt. eigenvalues --    5.78153   5.79125   5.82386   5.82723   5.84231
 Alpha virt. eigenvalues --    5.85374   5.86507   5.88038   5.90949   5.94028
 Alpha virt. eigenvalues --    5.97166   5.99750   6.05906   6.18421   6.19792
 Alpha virt. eigenvalues --    6.23260   6.25272   6.27206   6.31294   6.36947
 Alpha virt. eigenvalues --    6.39841   6.42485   6.48808   6.51373   6.51669
 Alpha virt. eigenvalues --    6.56546   6.58879   6.69437   6.71742   6.73052
 Alpha virt. eigenvalues --    6.75761   6.79235   6.84197   6.84440   6.86121
 Alpha virt. eigenvalues --    6.87738   6.90007   6.99234   7.02886   7.06029
 Alpha virt. eigenvalues --    7.08767   7.09085   7.10175   7.16760   7.23994
 Alpha virt. eigenvalues --    7.25447   7.31954   9.01904   9.42609   9.55780
 Alpha virt. eigenvalues --   19.98874  22.33149  22.45062  22.55016  22.56612
 Alpha virt. eigenvalues --   22.62105  22.69009  22.73146  22.74949  22.81346
 Alpha virt. eigenvalues --   22.84975  22.87978  22.95250  23.09035  23.11251
 Alpha virt. eigenvalues --   23.21290  23.34665  32.09693  33.17200  44.12643
 Alpha virt. eigenvalues --   44.18424  44.22342  44.26532  44.50119
          Condensed to atoms (all electrons):
               1          2          3          4          5          6
     1  C    5.107449   0.423994   0.417610  -0.006792   0.000173  -0.000384
     2  H    0.423994   0.509806  -0.022797  -0.001081   0.000232  -0.000003
     3  H    0.417610  -0.022797   0.538455   0.001757  -0.000003  -0.000007
     4  C   -0.006792  -0.001081   0.001757   5.381673   0.489476   0.274869
     5  H    0.000173   0.000232  -0.000003   0.489476   0.545022  -0.032370
     6  O   -0.000384  -0.000003  -0.000007   0.274869  -0.032370   8.036660
     7  H   -0.000065  -0.000004   0.000005  -0.037529  -0.013931   0.283563
     8  C    0.011721   0.012966  -0.009894  -0.015175  -0.060674  -0.054421
     9  H    0.010357   0.000124  -0.002198  -0.100104   0.001536   0.004146
    10  O    0.007004  -0.000371   0.000274  -0.038107   0.001459  -0.008962
    11  H   -0.001354  -0.000125   0.000471   0.015319  -0.000750  -0.000487
    12  C   -0.004873  -0.000171   0.000668   0.034694  -0.094410  -0.033895
    13  H   -0.000142   0.000014   0.000118  -0.087918   0.006741   0.009824
    14  C    0.169954  -0.049911  -0.042277   0.111572   0.013066   0.006676
    15  H   -0.071506  -0.007097  -0.003122  -0.008023   0.000016   0.000113
    16  O   -0.029962   0.000849   0.005151  -0.063352   0.001584   0.005193
    17  N    0.000013  -0.000053  -0.000033   0.007618  -0.011819  -0.002344
    18  C   -0.000714   0.000017   0.000010  -0.008649   0.000194   0.003129
    19  H   -0.000125  -0.000056   0.000036  -0.011404  -0.001738   0.000946
    20  C    0.000026   0.000001  -0.000002   0.008264   0.005351  -0.001311
    21  H    0.000004   0.000000  -0.000000   0.000070   0.000084  -0.000019
    22  C   -0.000010  -0.000000   0.000000   0.000584  -0.000157  -0.000010
    23  H   -0.000000   0.000000  -0.000000   0.000024   0.000003   0.000000
    24  H    0.000000  -0.000000  -0.000000  -0.000489  -0.000138   0.000020
    25  C   -0.000061  -0.000005   0.000001  -0.007175  -0.000166   0.000060
    26  C   -0.000288   0.000041  -0.000005   0.016240  -0.001081  -0.005629
    27  H   -0.000016   0.000001  -0.000000   0.000716  -0.000086  -0.000135
    28  C    0.000000  -0.000000  -0.000000  -0.000013   0.000004  -0.000004
    29  O   -0.000000   0.000000  -0.000000   0.000006  -0.000000  -0.000000
    30  N   -0.000000   0.000000   0.000000   0.000000   0.000000  -0.000000
    31  H   -0.000000   0.000000   0.000000   0.000000   0.000000  -0.000000
    32  H    0.000000   0.000000  -0.000000   0.000000   0.000000   0.000000
    33  C    0.000001  -0.000000   0.000000  -0.000086  -0.000357  -0.014842
    34  C    0.000001  -0.000000   0.000000   0.001344   0.000323   0.008783
    35  C    0.000000   0.000000  -0.000000   0.000074   0.000184   0.000754
    36  C   -0.000000   0.000000   0.000000   0.000005   0.000001  -0.000001
    37  C   -0.000000   0.000000   0.000000   0.000055   0.000020  -0.000040
    38  O   -0.000000   0.000000  -0.000000   0.001463  -0.000049  -0.023614
    39  S   -0.000000  -0.000000  -0.000000  -0.000046   0.000003   0.000639
    40  H   -0.000000   0.000000  -0.000000   0.000141   0.000029   0.000178
    41  H   -0.000003   0.000000  -0.000000  -0.000171   0.000460   0.009900
    42  H    0.000000   0.000000  -0.000000   0.000000  -0.000000  -0.000000
    43  H    0.000000  -0.000000  -0.000000  -0.000000  -0.000000   0.000000
    44  H    0.000000  -0.000000  -0.000000  -0.000000  -0.000000   0.000000
    45  H   -0.000000   0.000000   0.000000   0.000015   0.000006   0.000019
    46  H    0.000000  -0.000000  -0.000000   0.000001   0.000001   0.000036
    47  H    0.378782  -0.022478  -0.025699   0.000594  -0.000220   0.000025
    48  H    0.000000   0.000000  -0.000000  -0.000016   0.000002   0.000270
               7          8          9         10         11         12
     1  C   -0.000065   0.011721   0.010357   0.007004  -0.001354  -0.004873
     2  H   -0.000004   0.012966   0.000124  -0.000371  -0.000125  -0.000171
     3  H    0.000005  -0.009894  -0.002198   0.000274   0.000471   0.000668
     4  C   -0.037529  -0.015175  -0.100104  -0.038107   0.015319   0.034694
     5  H   -0.013931  -0.060674   0.001536   0.001459  -0.000750  -0.094410
     6  O    0.283563  -0.054421   0.004146  -0.008962  -0.000487  -0.033895
     7  H    0.373185   0.011759  -0.000408  -0.000613   0.000194   0.006049
     8  C    0.011759   5.449083   0.514502   0.298726  -0.047093  -0.026626
     9  H   -0.000408   0.514502   0.579282  -0.054183  -0.007356   0.012148
    10  O   -0.000613   0.298726  -0.054183   7.990589   0.294962  -0.026731
    11  H    0.000194  -0.047093  -0.007356   0.294962   0.431001  -0.001407
    12  C    0.006049  -0.026626   0.012148  -0.026731  -0.001407   5.502039
    13  H   -0.001305   0.014618   0.002586   0.015410  -0.001122   0.435777
    14  C   -0.000945   0.033732  -0.125979  -0.060322   0.002650  -0.086520
    15  H    0.000076  -0.042820   0.010582  -0.000691   0.003291  -0.000225
    16  O    0.000133  -0.031307   0.005375   0.008626  -0.000008   0.256559
    17  N    0.004891   0.000781  -0.000699  -0.000085   0.000014   0.228270
    18  C   -0.000080  -0.003392  -0.000177  -0.000207   0.000009  -0.089558
    19  H    0.000357   0.001354  -0.000020  -0.000000   0.000003   0.012468
    20  C   -0.001994  -0.001143   0.000032   0.000006  -0.000001   0.010107
    21  H   -0.000023  -0.000004   0.000000   0.000000  -0.000000   0.000218
    22  C    0.000383  -0.000026  -0.000003  -0.000002   0.000000  -0.015144
    23  H   -0.000010   0.000000   0.000000   0.000000  -0.000000  -0.000076
    24  H    0.000538   0.000030  -0.000001   0.000000   0.000000   0.002870
    25  C    0.000646  -0.000464  -0.000003  -0.000026  -0.000001  -0.008469
    26  C   -0.001033  -0.004207  -0.000085  -0.000526  -0.000037  -0.072520
    27  H    0.000054  -0.000068  -0.000007  -0.000112   0.000004  -0.002511
    28  C    0.000023   0.000005   0.000000   0.000000  -0.000000   0.000272
    29  O    0.000003   0.000000   0.000000  -0.000000  -0.000000   0.000418
    30  N    0.000000  -0.000000  -0.000000  -0.000000  -0.000000   0.000006
    31  H   -0.000000  -0.000000   0.000000  -0.000000  -0.000000  -0.000005
    32  H   -0.000000  -0.000000  -0.000000   0.000000  -0.000000  -0.000011
    33  C    0.003795   0.000565   0.000011  -0.000662   0.000043   0.000087
    34  C   -0.007186   0.000010  -0.000017   0.000014   0.000001  -0.000989
    35  C    0.000127  -0.000110   0.000001  -0.000000  -0.000000  -0.001465
    36  C   -0.000006  -0.000000   0.000000  -0.000000  -0.000000  -0.000033
    37  C   -0.000448   0.000000   0.000000   0.000000  -0.000000  -0.000724
    38  O    0.035794  -0.000139   0.000000  -0.000001  -0.000000   0.000352
    39  S   -0.001213  -0.000031  -0.000001   0.000001  -0.000001   0.000336
    40  H   -0.000943  -0.000032   0.000000   0.000012  -0.000001   0.000014
    41  H   -0.009832  -0.000957   0.000014   0.002049  -0.000140  -0.000249
    42  H    0.000001   0.000000  -0.000000   0.000000  -0.000000   0.000001
    43  H    0.000001   0.000000  -0.000000   0.000000   0.000000   0.000003
    44  H   -0.000000   0.000000  -0.000000   0.000000   0.000000   0.000000
    45  H   -0.000125  -0.000000   0.000000  -0.000000  -0.000000  -0.000070
    46  H   -0.000122   0.000000  -0.000000  -0.000000   0.000000   0.000125
    47  H    0.000025  -0.013182   0.000592   0.000213   0.000155  -0.000934
    48  H    0.000272  -0.000018   0.000001   0.000004  -0.000002   0.000006
              13         14         15         16         17         18
     1  C   -0.000142   0.169954  -0.071506  -0.029962   0.000013  -0.000714
     2  H    0.000014  -0.049911  -0.007097   0.000849  -0.000053   0.000017
     3  H    0.000118  -0.042277  -0.003122   0.005151  -0.000033   0.000010
     4  C   -0.087918   0.111572  -0.008023  -0.063352   0.007618  -0.008649
     5  H    0.006741   0.013066   0.000016   0.001584  -0.011819   0.000194
     6  O    0.009824   0.006676   0.000113   0.005193  -0.002344   0.003129
     7  H   -0.001305  -0.000945   0.000076   0.000133   0.004891  -0.000080
     8  C    0.014618   0.033732  -0.042820  -0.031307   0.000781  -0.003392
     9  H    0.002586  -0.125979   0.010582   0.005375  -0.000699  -0.000177
    10  O    0.015410  -0.060322  -0.000691   0.008626  -0.000085  -0.000207
    11  H   -0.001122   0.002650   0.003291  -0.000008   0.000014   0.000009
    12  C    0.435777  -0.086520  -0.000225   0.256559   0.228270  -0.089558
    13  H    0.511710  -0.011108   0.006258  -0.032059  -0.052243   0.013954
    14  C   -0.011108   5.400597   0.417525   0.193005   0.012818  -0.000564
    15  H    0.006258   0.417525   0.608380  -0.036874  -0.001103   0.000310
    16  O   -0.032059   0.193005  -0.036874   8.066269  -0.077990   0.014584
    17  N   -0.052243   0.012818  -0.001103  -0.077990   6.449116   0.312615
    18  C    0.013954  -0.000564   0.000310   0.014584   0.312615   5.077789
    19  H    0.001063  -0.002329   0.000126   0.008585  -0.045587   0.412201
    20  C   -0.000016   0.000465   0.000003  -0.001296  -0.066695   0.480862
    21  H    0.000005  -0.000002  -0.000000  -0.000069   0.004382  -0.033378
    22  C    0.000083  -0.000036   0.000001   0.000660  -0.026642  -0.013757
    23  H   -0.000010  -0.000000  -0.000000  -0.000003  -0.001727   0.004152
    24  H   -0.000038   0.000002   0.000000   0.000034   0.018662   0.013827
    25  C    0.008756   0.000252   0.000026  -0.001887  -0.048524   0.044745
    26  C   -0.019405   0.000176  -0.000455   0.001945   0.339551  -0.185796
    27  H   -0.000913  -0.000016  -0.000019   0.000660  -0.034133   0.007783
    28  C    0.000127  -0.000004   0.000000  -0.000005   0.004530   0.003858
    29  O   -0.000038  -0.000000   0.000000  -0.000001  -0.000132   0.000463
    30  N   -0.000000   0.000000  -0.000000  -0.000000  -0.000391   0.000053
    31  H    0.000000  -0.000000   0.000000   0.000000   0.000016  -0.000011
    32  H    0.000001   0.000000  -0.000000   0.000000   0.000035   0.000226
    33  C   -0.000369  -0.000064   0.000000   0.000001   0.000190  -0.000047
    34  C    0.000437   0.000049  -0.000000   0.000052   0.002097   0.000491
    35  C   -0.000198  -0.000008  -0.000000  -0.000039  -0.017436   0.002902
    36  C    0.000001  -0.000000  -0.000000  -0.000000  -0.000320   0.000542
    37  C    0.000019  -0.000002   0.000000  -0.000001  -0.002188   0.001871
    38  O   -0.000268   0.000018  -0.000000   0.000007   0.004052   0.003566
    39  S    0.001375   0.000017   0.000000   0.000005   0.000727  -0.000178
[...]
      3        1           0.000773469   -0.004280018    0.000855444
      4        6           0.003943485   -0.004669513   -0.003238849
      5        1           0.004595466    0.004857162   -0.000254375
      6        8           0.000962848   -0.004983144   -0.010833509
      7        1          -0.006400381    0.003071820    0.002676321
      8        6          -0.011807853   -0.005554820   -0.005521302
      9        1           0.000892022    0.005414133   -0.002725371
     10        8           0.006636145   -0.001373978   -0.001150583
     11        1          -0.001585523    0.001666566    0.000422713
     12        6          -0.000991704    0.000395504    0.004187840
     13        1          -0.003622617   -0.000980858   -0.002938482
     14        6           0.000869310    0.001272466    0.006830601
     15        1          -0.002817845    0.002216461    0.001384562
     16        8          -0.002728338   -0.000005857    0.007363989
     17        7           0.021409291    0.005707919    0.005768427
     18        6          -0.006247641   -0.008343520   -0.000540682
     19        1           0.003645143    0.000941945    0.001281153
     20        6          -0.001049353   -0.007732893    0.003474666
     21        1          -0.000881718   -0.003608067    0.000483355
     22        6          -0.012161272    0.016157492    0.008939432
     23        1          -0.002152416    0.001304823   -0.001589726
     24        1           0.007117568   -0.015878085   -0.016679438
     25        6          -0.009108796    0.008695710   -0.004492791
     26        6           0.002028002   -0.001008635    0.001324615
     27        1           0.002866992   -0.000155356    0.002144621
     28        6          -0.014246412   -0.009308669   -0.000775178
     29        8           0.003143257    0.005227344   -0.004127481
     30        7           0.025070470   -0.000818808   -0.004648357
     31        1          -0.002595737   -0.005267018    0.008277783
     32        1          -0.002789511    0.005907073    0.007244427
     33        6          -0.002052479   -0.010537916   -0.000505054
     34        6           0.000573411   -0.031323893    0.016842542
     35        6          -0.007262567    0.000325413   -0.018040541
     36        6          -0.001781594    0.001068079   -0.005276180
     37        6           0.000064761    0.006937124    0.022386426
     38        8           0.001022055    0.014273316   -0.010850393
     39       16           0.012544128    0.013691830    0.006885143
     40        1           0.001519321    0.000621878    0.000379702
     41        1           0.001123773    0.001120702    0.002937722
     42        1          -0.003481138   -0.000411120   -0.003216825
     43        1           0.000432789    0.002472818   -0.001646158
     44        1          -0.001015807    0.001125041    0.000737630
     45        1           0.004620281   -0.005120457   -0.004566454
     46        1          -0.000693512    0.003701204   -0.001414224
     47        1           0.000603450   -0.001852905   -0.000500210
     48        1          -0.002899851    0.004622527   -0.005124735
 -------------------------------------------------------------------
 Cartesian Forces:  Max     0.031323893 RMS     0.007204433
 Leave Link  716 at Sun Apr  9 10:46:22 2023, MaxMem=  2684354560 cpu:               0.9 elap:               0.1
 (Enter /opt/gaussian/g16/l103.exe)

 GradGradGradGradGradGradGradGradGradGradGradGradGradGradGradGradGradGrad
 Berny optimization.
 Search for a local minimum.
 Step number   1 out of a maximum of    2
 All quantities printed in internal units (Hartrees-Bohrs-Radians)
 Second derivative matrix not updated -- first step.
 ITU=  0
     Eigenvalues ---    0.00050   0.00101   0.00109   0.00138   0.00175
     Eigenvalues ---    0.00318   0.00378   0.00415   0.00464   0.00534
     Eigenvalues ---    0.00632   0.00720   0.00829   0.00994   0.01047
     Eigenvalues ---    0.01119   0.01204   0.01382   0.01415   0.01550
     Eigenvalues ---    0.01719   0.02008   0.02247   0.02471   0.02583
     Eigenvalues ---    0.03116   0.03229   0.03632   0.03997   0.04065
     Eigenvalues ---    0.04316   0.04581   0.04685   0.04841   0.05025
     Eigenvalues ---    0.05134   0.05417   0.05558   0.05716   0.05869
     Eigenvalues ---    0.06062   0.06241   0.06626   0.06820   0.06989
     Eigenvalues ---    0.07135   0.07412   0.07591   0.07785   0.08219
     Eigenvalues ---    0.08312   0.08689   0.09343   0.09875   0.10030
     Eigenvalues ---    0.10768   0.11099   0.11353   0.11837   0.12102
     Eigenvalues ---    0.13011   0.13050   0.13294   0.13494   0.13856
     Eigenvalues ---    0.14113   0.14375   0.14850   0.15028   0.15783
     Eigenvalues ---    0.16456   0.16697   0.17613   0.18783   0.19564
     Eigenvalues ---    0.20507   0.21035   0.21882   0.22262   0.25882
     Eigenvalues ---    0.26291   0.27764   0.28817   0.28887   0.31481
     Eigenvalues ---    0.32670   0.33721   0.35103   0.37241   0.37338
     Eigenvalues ---    0.37338   0.37338   0.37338   0.37338   0.42261
     Eigenvalues ---    0.43763   0.46157   0.48772   0.54274   0.54470
     Eigenvalues ---    0.60685   0.61404   0.67359   0.68667   0.72684
     Eigenvalues ---    0.76275   0.79007   0.83506   0.87759   0.89707
     Eigenvalues ---    0.90352   0.92226   0.92984   0.94802   0.95297
     Eigenvalues ---    0.96300   0.97173   0.98963   1.01875   1.03492
     Eigenvalues ---    1.04333   1.06759   1.07496   1.09922   1.10587
     Eigenvalues ---    1.17259   1.17729   1.19912   1.25954   1.28236
     Eigenvalues ---    1.30921   1.34266   1.43902   1.53960   1.70779
     Eigenvalues ---    1.77612   1.98418   2.35177
 Quadratic step=8.091D+00 exceeds max=3.000D-01 adjusted using Lamda=-4.894D-02.
 Angle between NR and scaled steps=  64.58 degrees.
 Angle between quadratic step and forces=  53.80 degrees.
 Linear search not attempted -- first point.
 Variable       Old X    -DE/DX   Delta X   Delta X   Delta X     New X
                                 (Linear)    (Quad)   (Total)
    X1        6.58751  -0.00574   0.00000  -0.00629  -0.00629   6.58122
    Y1       -6.90168   0.01411   0.00000   0.03088   0.03088  -6.87080
    Z1       -1.32025  -0.00085   0.00000  -0.00319  -0.00319  -1.32344
    X2        6.75800  -0.00034   0.00000   0.00074   0.00074   6.75873
    Y2       -7.21003  -0.00369   0.00000  -0.00707  -0.00707  -7.21710
    Z2       -3.34274  -0.00132   0.00000  -0.00206  -0.00206  -3.34480
    X3        8.28520   0.00077   0.00000  -0.01280  -0.01280   8.27239
    Y3       -7.57084  -0.00428   0.00000  -0.01356  -0.01356  -7.58440
    Z3       -0.37966   0.00086   0.00000  -0.00282  -0.00282  -0.38248
    X4        3.08661   0.00394   0.00000   0.00059   0.00059   3.08720
    Y4       -2.38769  -0.00467   0.00000  -0.00644  -0.00644  -2.39413
    Z4        1.85678  -0.00324   0.00000  -0.02750  -0.02750   1.82928
    X5        1.80017   0.00460   0.00000   0.02087   0.02087   1.82104
    Y5       -4.03830   0.00486   0.00000   0.00032   0.00032  -4.03797
    Z5        1.79873  -0.00025   0.00000  -0.03019  -0.03019   1.76854
    X6        2.55925   0.00096   0.00000  -0.03374  -0.03374   2.52552
    Y6       -0.80363  -0.00498   0.00000  -0.00666  -0.00666  -0.81029
    Z6        3.89032  -0.01083   0.00000  -0.05173  -0.05173   3.83859
    X7        0.81451  -0.00640   0.00000  -0.04500  -0.04500   0.76951
    Y7       -0.24601   0.00307   0.00000  -0.00382  -0.00382  -0.24983
    Z7        3.78920   0.00268   0.00000  -0.00728  -0.00728   3.78192
    X8        5.84106  -0.01181   0.00000  -0.01770  -0.01770   5.82337
    Y8       -3.35357  -0.00555   0.00000   0.00417   0.00417  -3.34939
    Z8        1.96832  -0.00552   0.00000  -0.01261  -0.01261   1.95570
    X9        5.99965   0.00089   0.00000  -0.00191  -0.00191   5.99773
    Y9       -5.02227   0.00541   0.00000   0.02169   0.02169  -5.00058
    Z9        3.20826  -0.00273   0.00000  -0.01361  -0.01361   3.19465
   X10        7.31597   0.00664   0.00000   0.00866   0.00866   7.32463
   Y10       -1.33110  -0.00137   0.00000  -0.00309  -0.00309  -1.33419
   Z10        2.83628  -0.00115   0.00000  -0.01910  -0.01910   2.81718
   X11        9.05503  -0.00159   0.00000   0.00417   0.00417   9.05920
   Y11       -1.86838   0.00167   0.00000  -0.00197  -0.00197  -1.87035
   Z11        2.88894   0.00042   0.00000   0.00149   0.00149   2.89043
   X12        3.13235  -0.00099   0.00000   0.00533   0.00533   3.13768
   Y12       -1.14687   0.00040   0.00000   0.00446   0.00446  -1.14241
   Z12       -0.79880   0.00419   0.00000   0.00456   0.00456  -0.79424
   X13        4.24797  -0.00362   0.00000  -0.01067  -0.01067   4.23730
   Y13        0.59671  -0.00098   0.00000   0.00658   0.00658   0.60329
   Z13       -0.62505  -0.00294   0.00000  -0.02108  -0.02108  -0.64612
   X14        6.38394   0.00087   0.00000  -0.00276  -0.00276   6.38117
   Y14       -4.06959   0.00127   0.00000   0.01700   0.01700  -4.05258
   Z14       -0.84773   0.00683   0.00000   0.01573   0.01573  -0.83200
   X15        8.17961  -0.00282   0.00000  -0.01694  -0.01694   8.16267
   Y15       -3.19502   0.00222   0.00000   0.03917   0.03917  -3.15585
   Z15       -1.41534   0.00138   0.00000   0.02022   0.02022  -1.39512
   X16        4.38779  -0.00273   0.00000  -0.01190  -0.01190   4.37589
   Y16       -2.96183  -0.00001   0.00000  -0.00518  -0.00518  -2.96701
   Z16       -2.33005   0.00736   0.00000   0.02394   0.02394  -2.30610
   X17        0.68517   0.02141   0.00000   0.02269   0.02269   0.70787
   Y17       -0.48411   0.00571   0.00000   0.00350   0.00350  -0.48060
   Z17       -1.88722   0.00577   0.00000   0.01081   0.01081  -1.87641
   X18       -1.23835  -0.00625   0.00000   0.00635   0.00635  -1.23199
   Y18       -2.21980  -0.00834   0.00000  -0.00892  -0.00892  -2.22873
   Z18       -1.98729  -0.00054   0.00000   0.00039   0.00039  -1.98690
   X19       -0.81261   0.00365   0.00000   0.04214   0.04214  -0.77047
   Y19       -4.13053   0.00094   0.00000  -0.00498  -0.00498  -4.13551
   Z19       -1.41611   0.00128   0.00000  -0.01253  -0.01253  -1.42863
   X20       -3.52600  -0.00105   0.00000  -0.01489  -0.01489  -3.54089
   Y20       -1.59062  -0.00773   0.00000  -0.00557  -0.00557  -1.59619
   Z20       -2.85738   0.00347   0.00000   0.02790   0.02790  -2.82948
   X21       -4.99899  -0.00088   0.00000   0.00710   0.00710  -4.99189
   Y21       -2.98964  -0.00361   0.00000  -0.03567  -0.03567  -3.02531
   Z21       -2.93934   0.00048   0.00000  -0.00183  -0.00183  -2.94117
   X22       -4.07045  -0.01216   0.00000  -0.05923  -0.05923  -4.12968
   Y22        0.95933   0.01616   0.00000   0.03913   0.03913   0.99846
   Z22       -3.60249   0.00894   0.00000   0.08234   0.08234  -3.52015
   X23       -5.67783  -0.00215   0.00000  -0.02636  -0.02636  -5.70419
   Y23        1.20901   0.00130   0.00000   0.01944   0.01944   1.22845
   Z23       -4.83872  -0.00159   0.00000   0.02410   0.02410  -4.81462
   X24       -5.05952   0.00712   0.00000   0.04491   0.04491  -5.01461
   Y24        2.30132  -0.01588   0.00000  -0.05570  -0.05570   2.24562
   Z24       -1.49258  -0.01668   0.00000  -0.08924  -0.08924  -1.58182
   X25       -1.85961  -0.00911   0.00000  -0.03704  -0.03704  -1.89666
   Y25        2.49415   0.00870   0.00000   0.01579   0.01579   2.50994
   Z25       -4.07515  -0.00449   0.00000   0.04232   0.04232  -4.03283
   X26        0.36652   0.00203   0.00000  -0.00799  -0.00799   0.35853
   Y26        1.81163  -0.00101   0.00000   0.00329   0.00329   1.81492
   Z26       -3.04178   0.00132   0.00000   0.01471   0.01471  -3.02706
   X27        1.98806   0.00287   0.00000   0.00777   0.00777   1.99584
   Y27        3.04009  -0.00016   0.00000  -0.00828  -0.00828   3.03181
   Z27       -3.18236   0.00214   0.00000   0.00998   0.00998  -3.17237
   X28       -2.15908  -0.01425   0.00000  -0.00170  -0.00170  -2.16079
   Y28        5.01054  -0.00931   0.00000  -0.01459  -0.01459   4.99595
   Z28       -5.35652  -0.00078   0.00000   0.01284   0.01284  -5.34368
   X29       -0.89594   0.00314   0.00000   0.02547   0.02547  -0.87047
   Y29        6.82142   0.00523   0.00000  -0.00875  -0.00875   6.81267
   Z29       -4.82118  -0.00413   0.00000  -0.05506  -0.05506  -4.87624
   X30       -4.21520   0.02507   0.00000   0.08063   0.08063  -4.13457
   Y30        5.13177  -0.00082   0.00000  -0.02243  -0.02243   5.10934
   Z30       -7.08804  -0.00465   0.00000  -0.02300  -0.02300  -7.11104
   X31       -4.03188  -0.00260   0.00000   0.02681   0.02681  -4.00506
   Y31        6.68557  -0.00527   0.00000  -0.01298  -0.01298   6.67260
   Z31       -8.22747   0.00828   0.00000   0.01391   0.01391  -8.21356
   X32       -4.35923  -0.00279   0.00000   0.00589   0.00589  -4.35334
   Y32        3.53724   0.00591   0.00000  -0.01734  -0.01734   3.51989
   Z32       -8.17216   0.00724   0.00000   0.01323   0.01323  -8.15893
   X33        1.25521  -0.00205   0.00000  -0.00929  -0.00929   1.24592
   Y33        4.05727  -0.01054   0.00000  -0.02109  -0.02109   4.03618
   Z33        7.19863  -0.00051   0.00000   0.01296   0.01296   7.21159
   X34       -2.06963   0.00057   0.00000   0.01330   0.01330  -2.05633
   Y34        3.86513  -0.03132   0.00000  -0.01394  -0.01394   3.85119
   Z34        3.24013   0.01684   0.00000   0.00718   0.00718   3.24731
   X35       -3.45932  -0.00726   0.00000   0.00278   0.00278  -3.45654
   Y35        5.01558   0.00033   0.00000  -0.00473  -0.00473   5.01084
   Z35        1.28072  -0.01804   0.00000  -0.02426  -0.02426   1.25646
   X36       -7.32746  -0.00178   0.00000  -0.01833  -0.01833  -7.34579
   Y36        5.79757   0.00107   0.00000   0.00610   0.00610   5.80367
   Z36       -1.23531  -0.00528   0.00000   0.00106   0.00106  -1.23425
   X37       -5.66487   0.00006   0.00000   0.00544   0.00544  -5.65943
   Y37        4.01490   0.00694   0.00000  -0.01531  -0.01531   3.99958
   Z37        0.22759   0.02239   0.00000  -0.00135  -0.00135   0.22624
   X38       -2.29799   0.00102   0.00000   0.01318   0.01318  -2.28481
   Y38        1.65845   0.01427   0.00000  -0.01037  -0.01037   1.64808
   Z38        4.03899  -0.01085   0.00000  -0.04276  -0.04276   3.99623
   X39        0.07769   0.01254   0.00000   0.02329   0.02329   0.10098
   Y39        5.95471   0.01369   0.00000   0.02306   0.02306   5.97777
   Z39        4.63877   0.00689   0.00000   0.03311   0.03311   4.67188
   X40       -0.35595   0.00152   0.00000  -0.00205  -0.00205  -0.35801
   Y40        3.29023   0.00062   0.00000  -0.00805  -0.00805   3.28218
   Z40        8.22747   0.00038   0.00000   0.02520   0.02520   8.25267
   X41        2.34492   0.00112   0.00000   0.02020   0.02020   2.36512
   Y41        2.49865   0.00112   0.00000  -0.00706  -0.00706   2.49159
   Z41        6.41567   0.00294   0.00000   0.04087   0.04087   6.45654
   X42       -7.83914  -0.00348   0.00000  -0.05514  -0.05514  -7.89428
   Y42        5.01913  -0.00041   0.00000   0.02373   0.02373   5.04286
   Z42       -3.06253  -0.00322   0.00000  -0.00235  -0.00235  -3.06487
   X43       -6.34998   0.00043   0.00000  -0.01678  -0.01678  -6.36676
   Y43        7.57084   0.00247   0.00000   0.01515   0.01515   7.58599
   Z43       -1.56685  -0.00165   0.00000   0.00054   0.00054  -1.56630
   X44       -9.05503  -0.00102   0.00000  -0.00484  -0.00484  -9.05987
   Y44        6.18160   0.00113   0.00000   0.02234   0.02234   6.20394
   Z44       -0.18903   0.00074   0.00000   0.02671   0.02671  -0.16232
   X45       -6.70019   0.00462   0.00000   0.04320   0.04320  -6.65699
   Y45        2.73910  -0.00512   0.00000  -0.06194  -0.06194   2.67716
   Z45        1.48180  -0.00457   0.00000  -0.02587  -0.02587   1.45593
   X46       -2.71138  -0.00069   0.00000  -0.02719  -0.02719  -2.73857
   Y46        6.77027   0.00370   0.00000   0.02766   0.02766   6.79793
   Z46        0.55671  -0.00141   0.00000  -0.00006  -0.00006   0.55664
   X47        4.92657   0.00060   0.00000   0.00425   0.00425   4.93082
   Y47       -7.87906  -0.00185   0.00000   0.00453   0.00453  -7.87453
   Z47       -0.59307  -0.00050   0.00000  -0.01230  -0.01230  -0.60537
   X48        2.44992  -0.00290   0.00000  -0.03322  -0.03322   2.41670
   Y48        5.14598   0.00462   0.00000   0.03790   0.03790   5.18388
   Z48        8.47540  -0.00512   0.00000  -0.02090  -0.02090   8.45450
         Item               Value     Threshold  Converged?
 Maximum Force            0.031324     0.000450     NO 
 RMS     Force            0.007204     0.000300     NO 
 Maximum Displacement     0.089236     0.001800     NO 
 RMS     Displacement     0.025006     0.001200     NO 
 Predicted change in Energy=-9.863231D-03
 GradGradGradGradGradGradGradGradGradGradGradGradGradGradGradGradGradGrad

 Leave Link  103 at Sun Apr  9 10:46:22 2023, MaxMem=  2684354560 cpu:               1.7 elap:               0.1
 (Enter /opt/gaussian/g16/l9999.exe)

 Test job not archived.
 1\1\GINC-JULIO-SYS\Force\RM062X\def2TZVP\C16H24N2O5S1\JVELAZQUEZ\09-Ap
 r-2023\0\\#P M062X/Def2TZVP scf=(direct,conver=8) EmpiricalDispersion=
 GD3 NoSymm Force pop=(NBORead) Charge Prop=(Field,Read)\\Gaussian run 
 using SANDER external interface, route from template gau_job.tpl\\0,1\
 C,3.4859613987,-3.6522130366,-0.6986478813\H,3.5761775693,-3.815381387
 5,-1.7689020099\H,4.3843369374,-4.0063164755,-0.2009053575\C,1.6333617
 803,-1.2635097266,0.9825654645\H,0.9526089952,-2.1369743648,0.95184741
 71\O,1.3542975638,-0.4252615208,2.0586692142\H,0.4310193435,-0.1301817
 883,2.0051584689\C,3.0909581733,-1.7746317899,1.0415891021\H,3.1748757
 006,-2.657671943,1.6977383809\O,3.8714426989,-0.7043866174,1.500892561
 5\H,4.7917137261,-0.9887027086,1.5287637993\C,1.6575681023,-0.60689896
 29,-0.4227054364\H,2.2479279966,0.315764369,-0.330759579\C,3.378233676
 7,-2.1535328875,-0.448599955\H,4.328462002,-1.6907325276,-0.7489678318
 \O,2.3219179562,-1.5673309447,-1.2330069091\N,0.3625781789,-0.25617931
 27,-0.9986719217\C,-0.6553041623,-1.174670032,-1.051626829\H,-0.430012
 341,-2.1857824715,-0.7493726038\C,-1.8658795793,-0.8417184166,-1.51206
 05778\H,-2.6453514023,-1.5820485574,-1.5554337602\C,-2.1539880705,0.50
 76539657,-1.9063560639\H,-3.0045769261,0.6397807661,-2.5605402249\H,-2
 .6773848047,1.217804698,-0.789841279\C,-0.9840656778,1.3198472206,-2.1
 564772636\C,0.1939540792,0.9586736272,-1.6096389487\H,1.0520374472,1.6
 0874529,-1.6840320274\C,-1.1425385251,2.6514647479,-2.8345482696\O,-0.
 4741104247,3.6097406223,-2.551257691\N,-2.2305898509,2.7156182198,-3.7
 508304693\H,-2.1335778821,3.5378526072,-4.3537907535\H,-2.3068068266,1
 .8718260729,-4.3245234019\C,0.6642285318,2.147012917,3.8093489133\C,-1
 .0951992013,2.045339637,1.7146020447\C,-1.8305948139,2.6541296016,0.67
 77259806\C,-3.8775242998,3.0679436556,-0.6536985947\C,-2.9977184071,2.
 1245926385,0.1204337341\O,-1.2160462422,0.877612858,2.1373422778\S,0.0
 411110792,3.1510963169,2.4547321394\H,-0.1883625998,1.741114158,4.3537
 907535\H,1.2408793711,1.322229296,3.3950280227\H,-4.1482931918,2.65600
 92068,-1.6206202081\H,-3.3602655025,4.0063164755,-0.8291392749\H,-4.79
 17137261,3.2711608166,-0.1000318704\H,-3.5455859016,1.4494689465,0.784
 1371446\H,-1.4347999255,3.5826712945,0.294595779\H,2.6070297372,-4.169
 4179073,-0.3138385051\H,1.2964423265,2.7231333286,4.4849900822\\Versio
 n=ES64L-G16RevA.03\HF=-1507.8539241\RMSD=5.999e-09\RMSF=7.204e-03\Dipo
 le=0.3525339,-1.9584359,-1.5707296\Quadrupole=11.0388966,-9.7554378,-1
 .2834588,-7.6590069,9.9296416,-3.8367863\PG=C01 [X(C16H24N2O5S1)]\\@


 NOTHING MAKES A PERSON MORE PRODUCTIVE THAN THE LAST MINUTE.
 Job cpu time:       0 days  7 hours  3 minutes 33.6 seconds.
 Elapsed time:       0 days  0 hours 26 minutes 28.8 seconds.
 File lengths (MBytes):  RWF=    435 Int=      0 D2E=      0 Chk=     48 Scr=      1
 Normal termination of Gaussian 16 at Sun Apr  9 10:46:22 2023.
