 Entering Gaussian System, Link 0=g16
 Initial command:
 /opt/gaussian/g16/l1.exe "/opt/gaussian/scratch16/Gau-3406776.inp" -scrdir="/opt/gaussian/scratch16/"
 Entering Link 1 = /opt/gaussian/g16/l1.exe PID=   3406778.
  
 Copyright (c) 1988,1990,1992,1993,1995,1998,2003,2009,2016,
            Gaussian, Inc.  All Rights Reserved.
  
 This is part of the Gaussian(R) 16 program.  It is based on
 the Gaussian(R) 09 system (copyright 2009, Gaussian, Inc.),
 the Gaussian(R) 03 system (copyright 2003, Gaussian, Inc.),
 the Gaussian(R) 98 system (copyright 1998, Gaussian, Inc.),
 the Gaussian(R) 94 system (copyright 1995, Gaussian, Inc.),
 the Gaussian 92(TM) system (copyright 1992, Gaussian, Inc.),
 the Gaussian 90(TM) system (copyright 1990, Gaussian, Inc.),
 the Gaussian 88(TM) system (copyright 1988, Gaussian, Inc.),
 the Gaussian 86(TM) system (copyright 1986, Carnegie Mellon
 University), and the Gaussian 82(TM) system (copyright 1983,
 Carnegie Mellon University). Gaussian is a federally registered
 trademark of Gaussian, Inc.
  
 This software contains proprietary and confidential information,
 including trade secrets, belonging to Gaussian, Inc.
  
 This software is provided under written license and may be
 used, copied, transmitted, or stored only in accord with that
 written license.
  
 The following legend is applicable only to US Government
 contracts under FAR:
  
                    RESTRICTED RIGHTS LEGEND
  
 Use, reproduction and disclosure by the US Government is
 subject to restrictions as set forth in subparagraphs (a)
 and (c) of the Commercial Computer Software - Restricted
 Rights clause in FAR 52.227-19.
  
 Gaussian, Inc.
 340 Quinnipiac St., Bldg. 40, Wallingford CT 06492
  
  
 ---------------------------------------------------------------
 Warning -- This program may not be used in any manner that
 competes with the business of Gaussian, Inc. or will provide
 assistance to any competitor of Gaussian, Inc.  The licensee
 of this program is prohibited from giving any competitor of
 Gaussian, Inc. access to this program.  By using this program,
 the user acknowledges that Gaussian, Inc. is engaged in the
 business of creating and licensing software in the field of
 computational chemistry and represents and warrants to the
 licensee that it is not a competitor of Gaussian, Inc. and that
 it will not use this program in any manner prohibited above.
 ---------------------------------------------------------------
  

 Cite this work as:
 Gaussian 16, Revision A.03,
 M. J. Frisch, G. W. Trucks, H. B. Schlegel, G. E. Scuseria, 
 M. A. Robb, J. R. Cheeseman, G. Scalmani, V. Barone, 
 G. A. Petersson, H. Nakatsuji, X. Li, M. Caricato, A. V. Marenich, 
 J. Bloino, B. G. Janesko, R. Gomperts, B. Mennucci, H. P. Hratchian, 
 J. V. Ortiz, A. F. Izmaylov, J. L. Sonnenberg, D. Williams-Young, 
 F. Ding, F. Lipparini, F. Egidi, J. Goings, B. Peng, A. Petrone, 
 T. Henderson, D. Ranasinghe, V. G. Zakrzewski, J. Gao, N. Rega, 
 G. Zheng, W. Liang, M. Hada, M. Ehara, K. Toyota, R. Fukuda, 
 J. Hasegawa, M. Ishida, T. Nakajima, Y. Honda, O. Kitao, H. Nakai, 
 T. Vreven, K. Throssell, J. A. Montgomery, Jr., J. E. Peralta, 
 F. Ogliaro, M. J. Bearpark, J. J. Heyd, E. N. Brothers, K. N. Kudin, 
 V. N. Staroverov, T. A. Keith, R. Kobayashi, J. Normand, 
 K. Raghavachari, A. P. Rendell, J. C. Burant, S. S. Iyengar, 
 J. Tomasi, M. Cossi, J. M. Millam, M. Klene, C. Adamo, R. Cammi, 
 J. W. Ochterski, R. L. Martin, K. Morokuma, O. Farkas, 
 J. B. Foresman, and D. J. Fox, Gaussian, Inc., Wallingford CT, 2016.
 
 ******************************************
 Gaussian 16:  ES64L-G16RevA.03 25-Dec-2016
                 9-Apr-2023 
 ******************************************
 %chk=24.chk
 %NProcShared=16
 Will use up to   16 processors via shared memory.
 %mem=20GB
 ----------------------------------------------------------------------
 #P M062X/Def2TZVP scf=(direct,conver=8) EmpiricalDispersion=GD3 NoSymm
  Force pop=(NBORead) Charge Prop=(Field,Read)
 ----------------------------------------------------------------------
 1/10=7,18=10,28=-2,30=1,38=1,125=101/1,3;
 2/12=2,15=1,17=6,18=5,29=2,40=1/2;
 3/5=44,7=101,11=2,25=1,30=1,71=1,74=-55,124=31/1,2,3;
 4//1;
 5/5=2,6=8,38=5/2;
 6/7=2,8=2,9=2,10=2,14=2,15=1,28=1,40=2/1,2,7;
 7/7=1,16=-2,29=1,30=1/1,2,3,16;
 1/10=7,18=10,28=-2,30=1/3;
 99/12=1/99;
 Leave Link    1 at Sun Apr  9 10:21:24 2023, MaxMem=  2684354560 cpu:               1.0 elap:               0.1
 (Enter /opt/gaussian/g16/l101.exe)
 ----------------------------------------------------------------------
 Gaussian run using SANDER external interface, route from template gau_
 job.tpl
 ----------------------------------------------------------------------
 Symbolic Z-matrix:
 Charge =  0 Multiplicity = 1
 C                     3.47012  -3.64424  -0.70083 
 H                     3.55856  -3.80756  -1.77139 
 H                     4.36957  -3.99785  -0.20489 
 C                     1.6163   -1.24591   0.98143 
 H                     0.93593  -2.12132   0.95086 
 O                     1.34424  -0.40891   2.05499 
 H                     0.42021  -0.09643   2.00747 
 C                     3.07535  -1.76244   1.0389 
 H                     3.15539  -2.64529   1.69592 
 O                     3.85857  -0.69431   1.49418 
 H                     4.77654  -0.98437   1.53731 
 C                     1.64532  -0.59363  -0.4284 
 H                     2.23769   0.32681  -0.33593 
 C                     3.36294  -2.14559  -0.45034 
 H                     4.31258  -1.6832   -0.75248 
 O                     2.30715  -1.55983  -1.23526 
 N                     0.3568   -0.25255  -1.02745 
 C                    -0.65207  -1.17263  -1.06342 
 H                    -0.45324  -2.15942  -0.68065 
 C                    -1.86074  -0.85234  -1.5708 
 H                    -2.65873  -1.57597  -1.54903 
 C                    -2.10437   0.44142  -2.05489 
 H                    -3.02584   0.64859  -2.57431 
 H                    -2.72451   1.26035  -0.71588 
 C                    -0.99073   1.30479  -2.20171 
 C                     0.18701   0.96076  -1.61678 
 H                     1.01865   1.64846  -1.62744 
 C                    -1.15389   2.65772  -2.84944 
 O                    -0.48838   3.60733  -2.54041 
 N                    -2.23547   2.72915  -3.76649 
 H                    -2.14988   3.55935  -4.3596 
 H                    -2.32108   1.88808  -4.34206 
 C                     0.65563   2.14427   3.81538 
 C                    -1.09582   2.02584   1.69444 
 C                    -1.82472   2.63625   0.69541 
 C                    -3.90082   3.07868  -0.62101 
 C                    -3.02014   2.07556   0.09095 
 O                    -1.18636   0.83611   2.10951 
 S                     0.03906   3.13949   2.45258 
 H                    -0.19989   1.74442   4.3596 
 H                     1.23162   1.31479   3.40976 
 H                    -4.23508   2.69053  -1.57826 
 H                    -3.35363   3.99785  -0.80707 
 H                    -4.77654   3.30735  -0.01803 
 H                    -3.58877   1.48407   0.82067 
 H                    -1.49513   3.61203   0.373 
 H                     2.59217  -4.16195  -0.31446 
 H                     1.28718   2.72392   4.48862 
 
 ITRead=  0  0  0  0  0  0  0  0  0  0  0  0  0  0  0  0  0  0  0  0
 ITRead=  0  0  0  0  0  0  0  0  0  0  0  0  0  0  0  0  0  0  0  0
 ITRead=  0  0  0  0  0  0  0  0
 MicOpt= -1 -1 -1 -1 -1 -1 -1 -1 -1 -1 -1 -1 -1 -1 -1 -1 -1 -1 -1 -1
 MicOpt= -1 -1 -1 -1 -1 -1 -1 -1 -1 -1 -1 -1 -1 -1 -1 -1 -1 -1 -1 -1
 MicOpt= -1 -1 -1 -1 -1 -1 -1 -1
 NAtoms=     48 NQM=       48 NQMF=       0 NMMI=      0 NMMIF=      0
                NMic=       0 NMicF=      0.
                    Isotopes and Nuclear Properties:
 (Nuclear quadrupole moments (NQMom) in fm**2, nuclear magnetic moments (NMagM)
  in nuclear magnetons)

  Atom         1           2           3           4           5           6           7           8           9          10
 IAtWgt=          12           1           1          12           1          16           1          12           1          16
 AtmWgt=  12.0000000   1.0078250   1.0078250  12.0000000   1.0078250  15.9949146   1.0078250  12.0000000   1.0078250  15.9949146
 NucSpn=           0           1           1           0           1           0           1           0           1           0
 AtZEff=  -0.0000000  -0.0000000  -0.0000000  -0.0000000  -0.0000000  -0.0000000  -0.0000000  -0.0000000  -0.0000000  -0.0000000
 NQMom=    0.0000000   0.0000000   0.0000000   0.0000000   0.0000000   0.0000000   0.0000000   0.0000000   0.0000000   0.0000000
 NMagM=    0.0000000   2.7928460   2.7928460   0.0000000   2.7928460   0.0000000   2.7928460   0.0000000   2.7928460   0.0000000
 AtZNuc=   6.0000000   1.0000000   1.0000000   6.0000000   1.0000000   8.0000000   1.0000000   6.0000000   1.0000000   8.0000000

  Atom        11          12          13          14          15          16          17          18          19          20
 IAtWgt=           1          12           1          12           1          16          14          12           1          12
 AtmWgt=   1.0078250  12.0000000   1.0078250  12.0000000   1.0078250  15.9949146  14.0030740  12.0000000   1.0078250  12.0000000
 NucSpn=           1           0           1           0           1           0           2           0           1           0
 AtZEff=  -0.0000000  -0.0000000  -0.0000000  -0.0000000  -0.0000000  -0.0000000  -0.0000000  -0.0000000  -0.0000000  -0.0000000
 NQMom=    0.0000000   0.0000000   0.0000000   0.0000000   0.0000000   0.0000000   2.0440000   0.0000000   0.0000000   0.0000000
 NMagM=    2.7928460   0.0000000   2.7928460   0.0000000   2.7928460   0.0000000   0.4037610   0.0000000   2.7928460   0.0000000
 AtZNuc=   1.0000000   6.0000000   1.0000000   6.0000000   1.0000000   8.0000000   7.0000000   6.0000000   1.0000000   6.0000000

  Atom        21          22          23          24          25          26          27          28          29          30
 IAtWgt=           1          12           1           1          12          12           1          12          16          14
 AtmWgt=   1.0078250  12.0000000   1.0078250   1.0078250  12.0000000  12.0000000   1.0078250  12.0000000  15.9949146  14.0030740
 NucSpn=           1           0           1           1           0           0           1           0           0           2
 AtZEff=  -0.0000000  -0.0000000  -0.0000000  -0.0000000  -0.0000000  -0.0000000  -0.0000000  -0.0000000  -0.0000000  -0.0000000
 NQMom=    0.0000000   0.0000000   0.0000000   0.0000000   0.0000000   0.0000000   0.0000000   0.0000000   0.0000000   2.0440000
 NMagM=    2.7928460   0.0000000   2.7928460   2.7928460   0.0000000   0.0000000   2.7928460   0.0000000   0.0000000   0.4037610
 AtZNuc=   1.0000000   6.0000000   1.0000000   1.0000000   6.0000000   6.0000000   1.0000000   6.0000000   8.0000000   7.0000000

  Atom        31          32          33          34          35          36          37          38          39          40
 IAtWgt=           1           1          12          12          12          12          12          16          32           1
 AtmWgt=   1.0078250   1.0078250  12.0000000  12.0000000  12.0000000  12.0000000  12.0000000  15.9949146  31.9720718   1.0078250
 NucSpn=           1           1           0           0           0           0           0           0           0           1
 AtZEff=  -0.0000000  -0.0000000  -0.0000000  -0.0000000  -0.0000000  -0.0000000  -0.0000000  -0.0000000  -0.0000000  -0.0000000
 NQMom=    0.0000000   0.0000000   0.0000000   0.0000000   0.0000000   0.0000000   0.0000000   0.0000000   0.0000000   0.0000000
 NMagM=    2.7928460   2.7928460   0.0000000   0.0000000   0.0000000   0.0000000   0.0000000   0.0000000   0.0000000   2.7928460
 AtZNuc=   1.0000000   1.0000000   6.0000000   6.0000000   6.0000000   6.0000000   6.0000000   8.0000000  16.0000000   1.0000000

  Atom        41          42          43          44          45          46          47          48
 IAtWgt=           1           1           1           1           1           1           1           1
 AtmWgt=   1.0078250   1.0078250   1.0078250   1.0078250   1.0078250   1.0078250   1.0078250   1.0078250
 NucSpn=           1           1           1           1           1           1           1           1
 AtZEff=  -0.0000000  -0.0000000  -0.0000000  -0.0000000  -0.0000000  -0.0000000  -0.0000000  -0.0000000
 NQMom=    0.0000000   0.0000000   0.0000000   0.0000000   0.0000000   0.0000000   0.0000000   0.0000000
 NMagM=    2.7928460   2.7928460   2.7928460   2.7928460   2.7928460   2.7928460   2.7928460   2.7928460
 AtZNuc=   1.0000000   1.0000000   1.0000000   1.0000000   1.0000000   1.0000000   1.0000000   1.0000000
 Background charge distribution read from input stream:
 Leave Link  101 at Sun Apr  9 10:21:24 2023, MaxMem=  2684354560 cpu:               3.8 elap:               0.2
 (Enter /opt/gaussian/g16/l103.exe)

 GradGradGradGradGradGradGradGradGradGradGradGradGradGradGradGradGradGrad
 Berny optimization.
 Initialization pass.
 Trust Radius=3.00D-01 FncErr=1.00D-07 GrdErr=1.00D-07 EigMax=2.50D+02 EigMin=1.00D-04
 Number of steps in this run=      2 maximum allowed number of steps=      2.
 GradGradGradGradGradGradGradGradGradGradGradGradGradGradGradGradGradGrad

 Leave Link  103 at Sun Apr  9 10:21:24 2023, MaxMem=  2684354560 cpu:               0.4 elap:               0.0
 (Enter /opt/gaussian/g16/l202.exe)
 ---------------------------------------------------------------------------------------------------
                            Z-MATRIX (ANGSTROMS AND DEGREES)
   CD    Cent   Atom    N1       Length/X        N2       Alpha/Y        N3        Beta/Z          J
 ---------------------------------------------------------------------------------------------------
      1      1  C        0   3.470120         -3.644242         -0.700828
      2      2  H        0   3.558565         -3.807555         -1.771389
      3      3  H        0   4.369571         -3.997855         -0.204893
      4      4  C        0   1.616304         -1.245913          0.981429
      5      5  H        0   0.935931         -2.121316          0.950855
      6      6  O        0   1.344237         -0.408910          2.054987
      7      7  H        0   0.420214         -0.096430          2.007468
      8      8  C        0   3.075351         -1.762438          1.038898
      9      9  H        0   3.155388         -2.645291          1.695917
     10     10  O        0   3.858566         -0.694305          1.494182
     11     11  H        0   4.776544         -0.984373          1.537309
     12     12  C        0   1.645321         -0.593631         -0.428403
     13     13  H        0   2.237689          0.326810         -0.335925
     14     14  C        0   3.362941         -2.145590         -0.450342
     15     15  H        0   4.312577         -1.683196         -0.752482
     16     16  O        0   2.307153         -1.559825         -1.235257
     17     17  N        0   0.356796         -0.252552         -1.027445
     18     18  C        0  -0.652069         -1.172626         -1.063417
     19     19  H        0  -0.453238         -2.159419         -0.680653
     20     20  C        0  -1.860740         -0.852340         -1.570803
     21     21  H        0  -2.658729         -1.575969         -1.549034
     22     22  C        0  -2.104366          0.441423         -2.054895
     23     23  H        0  -3.025842          0.648594         -2.574308
     24     24  H        0  -2.724514          1.260349         -0.715885
     25     25  C        0  -0.990735          1.304792         -2.201709
     26     26  C        0   0.187014          0.960760         -1.616784
     27     27  H        0   1.018649          1.648464         -1.627435
     28     28  C        0  -1.153893          2.657718         -2.849435
     29     29  O        0  -0.488384          3.607331         -2.540414
     30     30  N        0  -2.235468          2.729152         -3.766494
     31     31  H        0  -2.149876          3.559351         -4.359597
     32     32  H        0  -2.321084          1.888084         -4.342062
     33     33  C        0   0.655625          2.144271          3.815378
     34     34  C        0  -1.095819          2.025839          1.694435
     35     35  C        0  -1.824715          2.636246          0.695412
     36     36  C        0  -3.900823          3.078678         -0.621014
     37     37  C        0  -3.020138          2.075562          0.090954
     38     38  O        0  -1.186358          0.836111          2.109507
     39     39  S        0   0.039060          3.139495          2.452582
     40     40  H        0  -0.199886          1.744418          4.359597
     41     41  H        0   1.231625          1.314795          3.409758
     42     42  H        0  -4.235076          2.690526         -1.578256
     43     43  H        0  -3.353627          3.997855         -0.807072
     44     44  H        0  -4.776544          3.307355         -0.018035
     45     45  H        0  -3.588771          1.484067          0.820671
     46     46  H        0  -1.495126          3.612028          0.372997
     47     47  H        0   2.592165         -4.161947         -0.314465
     48     48  H        0   1.287178          2.723916          4.488619
 ---------------------------------------------------------------------------------------------------
                         Z-Matrix orientation:                         
 ---------------------------------------------------------------------
 Center     Atomic      Atomic             Coordinates (Angstroms)
 Number     Number       Type             X           Y           Z
 ---------------------------------------------------------------------
      1          6           0        3.470120   -3.644242   -0.700828
      2          1           0        3.558565   -3.807555   -1.771389
      3          1           0        4.369571   -3.997855   -0.204893
      4          6           0        1.616304   -1.245913    0.981429
      5          1           0        0.935931   -2.121316    0.950855
      6          8           0        1.344237   -0.408910    2.054987
      7          1           0        0.420214   -0.096430    2.007468
      8          6           0        3.075351   -1.762438    1.038898
      9          1           0        3.155388   -2.645291    1.695917
     10          8           0        3.858566   -0.694305    1.494182
     11          1           0        4.776544   -0.984373    1.537309
     12          6           0        1.645321   -0.593631   -0.428403
     13          1           0        2.237689    0.326810   -0.335925
     14          6           0        3.362941   -2.145590   -0.450342
     15          1           0        4.312577   -1.683196   -0.752482
     16          8           0        2.307153   -1.559825   -1.235257
     17          7           0        0.356796   -0.252552   -1.027445
     18          6           0       -0.652069   -1.172626   -1.063417
     19          1           0       -0.453238   -2.159419   -0.680653
     20          6           0       -1.860740   -0.852340   -1.570803
     21          1           0       -2.658729   -1.575969   -1.549034
     22          6           0       -2.104366    0.441423   -2.054895
     23          1           0       -3.025842    0.648594   -2.574308
     24          1           0       -2.724514    1.260349   -0.715885
     25          6           0       -0.990735    1.304792   -2.201709
     26          6           0        0.187014    0.960760   -1.616784
     27          1           0        1.018649    1.648464   -1.627435
     28          6           0       -1.153893    2.657718   -2.849435
     29          8           0       -0.488384    3.607331   -2.540414
     30          7           0       -2.235468    2.729152   -3.766494
     31          1           0       -2.149876    3.559351   -4.359597
     32          1           0       -2.321084    1.888084   -4.342062
     33          6           0        0.655625    2.144271    3.815378
     34          6           0       -1.095819    2.025839    1.694435
     35          6           0       -1.824715    2.636246    0.695412
     36          6           0       -3.900823    3.078678   -0.621014
     37          6           0       -3.020138    2.075562    0.090954
     38          8           0       -1.186358    0.836111    2.109507
     39         16           0        0.039060    3.139495    2.452582
     40          1           0       -0.199886    1.744418    4.359597
     41          1           0        1.231625    1.314795    3.409758
     42          1           0       -4.235076    2.690526   -1.578256
     43          1           0       -3.353627    3.997855   -0.807072
     44          1           0       -4.776544    3.307355   -0.018035
     45          1           0       -3.588771    1.484067    0.820671
     46          1           0       -1.495126    3.612028    0.372997
     47          1           0        2.592165   -4.161947   -0.314465
     48          1           0        1.287178    2.723916    4.488619
 ---------------------------------------------------------------------
                    Distance matrix (angstroms):
                    1          2          3          4          5
     1  C    0.000000
     2  H    1.086552   0.000000
     3  H    1.086281   1.774220   0.000000
     4  C    3.466786   4.232304   4.069524   0.000000
     5  H    3.386661   4.139109   4.080078   1.109131   0.000000
     6  O    4.751975   5.576306   5.209628   1.388208   2.078017
     7  H    5.405901   6.156416   5.976042   1.950564   2.341486
     8  C    2.593005   3.509091   2.866899   1.548845   2.171097
     9  H    2.615596   3.679078   2.629971   2.199439   2.399095
    10  O    3.697443   4.521756   3.749856   2.365359   3.297477
    11  H    3.713610   4.516781   3.504563   3.219398   4.048070
    12  C    3.565155   3.974093   4.365803   1.553686   2.177018
    13  H    4.173882   4.571459   4.823361   2.143594   3.056746
    14  C    1.523216   2.132033   2.122365   2.431075   2.802555
    15  H    2.134971   2.473784   2.379233   3.235360   3.807236
    16  O    2.445996   2.627881   3.355475   2.342970   2.640948
    17  N    4.615519   4.841778   5.550337   2.570739   2.782328
    18  C    4.820041   5.017321   5.825449   3.054878   2.734785
    19  H    4.194978   4.472205   5.183211   2.807136   2.143143
    20  C    6.080266   6.175953   7.111733   4.331122   3.973717
    21  H    6.523802   6.609399   7.554419   4.978763   4.412304
    22  C    7.042801   7.085405   8.064834   5.090161   4.984533
    23  H    8.008488   7.991017   9.049627   6.146701   5.982878
    24  H    7.901185   8.140934   8.845104   5.291967   5.254763
    25  C    6.829700   6.856923   7.799886   4.840982   5.038742
    26  C    5.729206   5.841925   6.638907   3.696347   4.080789
    27  H    5.906017   6.019970   6.718126   3.942179   4.567895
    28  C    8.106337   8.072744   9.044275   6.130893   6.453584
    29  O    8.463990   8.482318   9.321654   6.355081   6.858209
    30  N    9.086924   8.959899  10.077905   7.292466   7.472496
    31  H    9.841884   9.672456  10.810925   8.111795   8.366187
    32  H    8.797912   8.580147   9.824729   7.325606   7.395837
    33  C    7.862848   8.663906   8.226888   4.521894   5.145804
    34  C    7.663870   8.228227   8.352414   4.309101   4.677586
    35  C    8.332424   8.751422   9.120912   5.195534   5.506434
    36  C    9.976714  10.216949  10.892654   7.190870   7.273576
    37  C    8.687147   9.019907   9.569834   5.772498   5.831269
    38  O    7.046583   7.690207   7.719587   3.669101   3.820074
    39  S    8.230142   8.859478   8.761122   4.887104   5.543978
    40  H    8.253151   9.085117   8.642234   4.863399   5.277642
    41  H    6.819077   7.648359   7.150989   3.549927   4.235622
    42  H   10.013451  10.149049  10.984558   7.502412   7.502636
    43  H   10.245802  10.470565  11.132914   7.442852   7.676905
    44  H   10.807329  11.098208  11.706939   7.911995   7.939873
    45  H    8.856774   9.263069   9.717945   5.879747   5.786939
    46  H    8.857777   9.229756   9.624913   5.800929   6.254214
    47  H    1.090000   1.783858   1.788324   3.336900   2.916903
    48  H    8.499943   9.327755   8.758561   5.307377   6.009611
                    6          7          8          9         10
     6  O    0.000000
     7  H    0.976586   0.000000
     8  C    2.420998   3.280771   0.000000
     9  H    2.900103   3.751657   1.103407   0.000000
    10  O    2.591872   3.527489   1.400577   2.083626   0.000000
    11  H    3.518506   4.470694   1.935938   2.326359   0.963682
    12  C    2.508386   2.771564   2.358828   3.316978   2.933414
    13  H    2.656314   2.995637   2.637569   3.715364   2.649379
    14  C    3.656213   4.347359   1.564401   2.213414   2.476498
    15  H    4.279805   5.028483   2.178544   2.873912   2.496303
    16  O    3.616285   4.027075   2.408934   3.238753   3.256662
    17  N    3.240505   3.039588   3.733640   4.579739   4.337757
    18  C    3.780601   3.426124   4.319869   4.927413   5.207296
    19  H    3.711997   3.499263   3.945300   4.348142   5.046594
    20  C    4.859512   4.310241   5.657191   6.248813   6.490729
    21  H    5.511327   4.931291   6.293793   6.743672   7.246628
    22  C    5.432039   4.813064   6.423241   7.159707   7.031527
    23  H    6.453393   5.781266   7.489519   8.203176   8.108703
    24  H    5.197969   4.375707   6.771627   7.459494   7.214014
    25  C    5.148624   4.655252   6.036761   6.927119   6.416519
    26  C    4.086204   3.782491   4.776081   5.726153   5.088973
    27  H    4.230724   4.076187   4.793079   5.834951   4.826819
    28  C    6.300652   5.801091   7.248684   8.206828   7.431542
    29  O    6.372315   5.935203   7.371981   8.385633   7.326528
    30  N    7.520064   6.955229   8.454051   9.369306   8.748258
    31  H    8.312810   7.778793   9.206964  10.164283   9.405407
    32  H    7.722240   7.195106   8.450003   9.327401   8.883611
    33  C    3.176775   2.888720   5.369012   5.803519   4.868706
    34  C    3.465815   2.626856   5.672691   6.316029   5.655547
    35  C    4.600400   3.772098   6.593713   7.327829   6.635532
    36  C    6.843604   5.971734   8.652094   9.376679   8.883557
    37  C    5.392383   4.497399   7.265248   7.937221   7.547037
    38  O    2.820809   1.860409   5.104980   5.580500   5.307736
    39  S    3.801676   3.288558   5.936877   6.614211   5.495923
    40  H    3.511747   3.050534   5.835431   6.133727   5.534348
    41  H    2.195277   2.148571   4.299960   4.724446   3.821875
    42  H    7.344092   6.503559   8.951018   9.685562   9.295375
    43  H    7.048467   6.239125   8.827250   9.631387   8.906619
    44  H    7.454663   6.534119   9.405964  10.064152   9.636659
    45  H    5.425998   4.469722   7.416059   7.956213   7.788565
    46  H    5.201828   4.482487   7.086435   7.907682   6.961579
    47  H    4.610522   5.161121   2.796910   2.580523   4.110901
    48  H    3.967420   3.855138   5.935108   6.333859   5.221391
                   11         12         13         14         15
    11  H    0.000000
    12  C    3.717695   0.000000
    13  H    3.416722   1.098482   0.000000
    14  C    2.701380   2.315011   2.718831   0.000000
    15  H    2.438598   2.899385   2.918699   1.098593   0.000000
    16  O    3.757148   1.422169   2.091175   1.440104   2.066402
    17  N    5.162140   1.461329   2.086053   3.599103   4.215513
    18  C    6.022380   2.452852   3.335904   4.176461   5.000508
    19  H    5.800923   2.630451   3.679845   3.823147   4.790088
    20  C    7.330166   3.696549   4.439869   5.496796   6.282501
    21  H    8.072099   4.554739   5.391392   6.147528   7.017485
    22  C    7.892005   4.216274   4.671341   6.257688   6.883853
    23  H    8.969348   5.288459   5.728757   7.289392   7.912565
    24  H    8.147486   4.755559   5.063528   6.980547   7.628004
    25  C    7.244449   3.701002   3.854908   5.824681   6.257272
    26  C    5.898782   2.440295   2.499552   4.593094   4.975721
    27  H    5.573976   2.618661   2.213781   4.612602   4.766074
    28  C    8.226690   4.926283   4.822208   7.016353   7.288556
    29  O    8.088945   5.163465   4.801360   7.231680   7.364482
    30  N    9.544051   6.102808   6.127739   8.130323   8.451626
    31  H   10.168295   6.863313   6.774214   8.844194   9.069668
    32  H    9.653721   6.099836   6.266507   7.982740   8.345333
    33  C    5.653317   5.146386   4.799939   6.627883   6.992006
    34  C    6.600812   4.345333   4.256917   6.471586   6.999650
    35  C    7.575903   4.871983   4.785424   7.147761   7.643320
    36  C    9.821581   6.654523   6.733156   8.948988   9.494877
    37  C    8.499611   5.400077   5.557437   7.671689   8.283016
    38  O    6.260813   4.062458   4.238352   6.011613   6.691501
    39  S    6.347264   4.981604   4.530004   6.885294   7.196786
    40  H    6.338491   5.638813   5.477163   7.138726   7.631790
    41  H    4.621546   4.306357   4.002302   5.605099   5.983683
    42  H   10.218656   6.832783   7.001945   9.076898   9.637102
    43  H    9.819287   6.798133   6.705324   9.109416   9.541908
    44  H   10.587706   7.525054   7.627855   9.806768  10.395053
    45  H    8.751300   5.768252   6.051825   7.944569   8.656654
    46  H    7.862339   5.309635   5.022862   7.578183   7.939491
    47  H    4.277564   3.693558   4.502782   2.162927   3.048915
    48  H    5.885347   5.942348   5.470449   7.239766   7.486309
                   16         17         18         19         20
    16  O    0.000000
    17  N    2.357125   0.000000
    18  C    2.989389   1.365884   0.000000
    19  H    2.878690   2.100610   1.076942   0.000000
    20  C    4.240808   2.360604   1.349410   2.117046   0.000000
    21  H    4.975811   3.334198   2.103614   2.441043   1.077450
    22  C    4.913074   2.755825   2.386912   3.373299   1.402684
    23  H    5.925454   3.827152   3.351780   4.253135   2.148788
    24  H    5.791442   3.446797   3.214836   4.105454   2.437302
    25  C    4.473938   2.370666   2.747363   3.821423   2.410015
    26  C    3.315705   1.359512   2.358307   3.319907   2.735460
    27  H    3.479535   2.100452   3.326855   4.190802   3.814198
    28  C    5.689647   3.751200   4.255964   5.329104   3.801979
    29  O    6.018136   4.231088   5.005627   6.059320   4.765729
    30  N    6.740763   4.807576   5.003763   6.049536   4.217650
    31  H    7.472119   5.649535   5.958173   7.008390   5.227235
    32  H    6.554455   4.768653   4.785715   5.768626   3.924502
    33  C    6.477406   5.411747   6.042725   6.321838   6.657531
    34  C    5.746329   3.835335   4.246510   4.854930   4.419366
    35  C    6.197325   4.009038   4.356155   5.174255   4.160200
    36  C    7.773801   5.421219   5.368772   6.271130   4.529563
    37  C    6.584444   4.251425   4.182230   5.011928   3.560653
    38  O    5.397460   3.661555   3.793144   4.158806   4.104916
    39  S    6.389680   4.870064   5.606630   6.175598   5.977592
    40  H    6.964601   5.772176   6.174358   6.380302   6.683654
    41  H    5.567438   4.786509   5.453885   5.624979   6.250214
    42  H    7.809219   5.481824   5.294048   6.215301   4.264907
    43  H    7.944531   5.646394   5.839349   6.807368   5.131899
    44  H    8.680428   6.327956   6.178539   7.001118   5.311879
    45  H    6.946512   4.690296   4.385433   5.035924   3.763514
    46  H    6.617543   4.508418   5.066256   5.958634   4.882890
    47  H    2.774911   4.559450   4.474598   3.663153   5.688607
    48  H    7.221741   6.336556   7.054703   7.321024   7.708151
                   21         22         23         24         25
    21  H    0.000000
    22  C    2.152460   0.000000
    23  H    2.476820   1.077882   0.000000
    24  H    2.956884   1.687652   1.979591   0.000000
    25  C    3.392193   1.416733   2.170504   2.283777   0.000000
    26  C    3.812851   2.389994   3.367008   3.062411   1.359260
    27  H    4.891444   3.375335   4.272495   3.872057   2.117905
    28  C    4.677572   2.539027   2.759795   2.995251   1.508834
    29  O    5.706122   3.587492   3.897944   3.719880   2.380916
    30  N    4.861105   2.860151   2.524821   3.420931   2.454937
    31  H    5.876198   3.877524   3.525206   4.346522   3.329133
    32  H    4.462586   2.714945   2.271117   3.702157   2.586729
    33  C    7.321342   6.706515   7.524517   5.721801   6.294487
    34  C    5.092720   4.193449   4.883028   3.008033   3.963696
    35  C    4.845191   3.529821   4.010553   2.166677   3.295694
    36  C    4.906094   3.498341   3.238250   2.167724   3.756845
    37  C    4.019186   2.848459   3.023226   1.184465   3.157351
    38  O    4.622870   4.282611   5.035572   3.244802   4.341026
    39  S    6.747340   5.673730   6.392796   4.605183   5.107742
    40  H    7.209910   6.816930   7.567424   5.689339   6.623401
    41  H    6.934045   6.461736   7.374205   5.716198   6.035523
    42  H    4.548484   3.134578   2.573685   2.251864   3.582555
    43  H    5.665766   3.970632   3.801068   2.810345   3.844588
    44  H    5.538587   4.416209   4.082708   2.981284   4.807394
    45  H    3.980490   3.399918   3.541298   1.777075   3.989575
    46  H    5.653626   4.039624   4.451027   2.868354   3.493831
    47  H    5.981917   6.802758   7.733706   7.604571   6.803242
    48  H    8.397169   7.715563   8.531943   6.732203   7.208556
                   26         27         28         29         30
    26  C    0.000000
    27  H    1.079197   0.000000
    28  C    2.489403   2.689204   0.000000
    29  O    2.883330   2.634737   1.200067   0.000000
    30  N    3.690106   4.041378   1.419826   2.307980   0.000000
    31  H    4.442606   4.599538   2.021265   2.464201   1.023878
    32  H    3.818065   4.310502   2.045142   3.092011   1.022743
    33  C    5.579308   5.477393   6.925152   6.621586   8.135435
    34  C    3.707320   3.955782   4.587963   4.561145   5.622739
    35  C    3.492929   3.802112   3.607826   3.633092   4.481736
    36  C    4.710366   5.221073   3.562120   3.950736   3.576258
    37  C    3.800654   4.409884   3.530959   3.959823   3.990338
    38  O    3.973277   4.414375   5.283031   5.457893   6.261919
    39  S    4.618280   4.453011   5.455880   5.042527   6.634664
    40  H    6.039945   6.110531   7.329010   7.152890   8.434848
    41  H    5.146132   5.052723   6.831664   6.604445   8.094426
    42  H    4.748521   5.356299   3.333267   3.975423   2.964509
    43  H    4.734524   5.030848   3.287255   3.371440   3.408529
    44  H    5.718340   6.239098   4.643540   4.984045   4.565340
    45  H    4.524553   5.220016   4.558045   5.041582   4.942039
    46  H    3.717263   3.765153   3.378049   3.082453   4.296855
    47  H    5.807144   6.161227   8.183328   8.649064   9.094493
    48  H    6.449420   6.215692   7.733709   7.303448   8.975297
                   31         32         33         34         35
    31  H    0.000000
    32  H    1.680105   0.000000
    33  C    8.758054   8.687362   0.000000
    34  C    6.333561   6.161132   2.753177   0.000000
    35  C    5.148880   5.116861   4.016008   1.379106   0.000000
    36  C    4.156184   4.214177   6.427746   3.786532   2.497789
    37  C    4.771414   4.491710   5.233286   2.505319   1.452160
    38  O    7.084751   6.634530   2.830933   1.263303   2.376479
    39  S    7.167531   7.300924   1.796618   1.761524   2.610472
    40  H    9.117060   8.957622   1.089934   2.825771   4.106298
    41  H    8.765583   8.546409   1.088272   2.977400   4.295943
    42  H    3.583123   3.456285   7.301277   4.583367   3.313963
    43  H    3.776472   4.244224   6.393506   3.904367   2.539489
    44  H    5.080556   5.171153   6.749539   4.257061   3.110094
    45  H    5.763020   5.331423   5.236319   2.696625   2.110710
    46  H    4.777962   5.087826   4.316252   2.102770   1.079227
    47  H    9.923129   8.772937   7.782942   7.478342   8.169707
    48  H    9.529020   9.575964   1.090000   3.738108   4.907137
                   36         37         38         39         40
    36  C    0.000000
    37  C    1.512861   0.000000
    38  O    4.455690   2.995587   0.000000
    39  S    4.997337   4.008482   2.631525   0.000000
    40  H    6.346942   5.126869   2.619361   2.374877   0.000000
    41  H    6.760210   5.447082   2.786832   2.380741   1.770874
    42  H    1.085679   2.154187   5.131582   5.892153   7.241269
    43  H    1.085784   2.147760   4.816649   4.782515   6.458988
    44  H    1.087549   2.148058   4.850042   5.414995   6.523207
    45  H    2.172239   1.098042   2.802236   4.308681   4.906762
    46  H    2.657047   2.183102   3.288847   2.627106   4.588964
    47  H    9.730341   8.400526   6.718145   8.214983   8.032904
    48  H    7.290375   6.189732   3.916933   2.424036   1.785335
                   41         42         43         44         45
    41  H    0.000000
    42  H    7.527133   0.000000
    43  H    6.782698   1.755217   0.000000
    44  H    7.198482   1.762939   1.767501   0.000000
    45  H    5.474325   2.761903   3.003992   2.332083   0.000000
    46  H    4.683414   3.487676   2.235051   3.318650   3.018605
    47  H    6.761331   9.755244  10.108287  10.496486   8.448075
    48  H    1.775571   8.203864   7.155720   7.577536   6.226230
                   46         47         48
    46  H    0.000000
    47  H    8.809838   0.000000
    48  H    5.046613   8.496335   0.000000
 Symmetry turned off by external request.
 Stoichiometry    C16H24N2O5S
 Framework group  C1[X(C16H24N2O5S)]
 Deg. of freedom   138
 Full point group                 C1      NOp   1
 Rotational constants (GHZ):           0.2853889           0.1680547           0.1256725
 Leave Link  202 at Sun Apr  9 10:21:24 2023, MaxMem=  2684354560 cpu:               0.1 elap:               0.0
 (Enter /opt/gaussian/g16/l301.exe)
 Standard basis: def2TZVP (5D, 7F)
 Ernie: Thresh=  0.10000D-02 Tol=  0.10000D-05 Strict=F.
   894 basis functions,  1434 primitive gaussians,  1014 cartesian basis functions
    95 alpha electrons       95 beta electrons
       nuclear repulsion energy      2432.9092997919 Hartrees.
 IExCor= 4336 DFT=T Ex+Corr=M062X ExCW=0 ScaHFX=  0.540000
 ScaDFX=  1.000000  1.000000  1.000000  1.000000 ScalE2=  1.000000  1.000000
 IRadAn=      5 IRanWt=     -1 IRanGd=            0 ICorTp=0 IEmpDi=131
 NAtoms=   48 NActive=   48 NUniq=   48 SFac= 1.00D+00 NAtFMM=   60 NAOKFM=F Big=F
 Integral buffers will be    131072 words long.
 Raffenetti 2 integral format.
 Two-electron integral symmetry is turned off.
 R6Disp:  Grimme-D3 Dispersion energy=       -0.0041870843 Hartrees.
 Nuclear repulsion after empirical dispersion term =     2432.9051127076 Hartrees.
 Leave Link  301 at Sun Apr  9 10:21:24 2023, MaxMem=  2684354560 cpu:               0.9 elap:               0.1
 (Enter /opt/gaussian/g16/l302.exe)
 NPDir=0 NMtPBC=     1 NCelOv=     1 NCel=       1 NClECP=     1 NCelD=      1
         NCelK=      1 NCelE2=     1 NClLst=     1 CellRange=     0.0.
 One-electron integrals computed using PRISM.
   1 Symmetry operations used in ECPInt.
 ECPInt:  NShTT=   65703 NPrTT=  200010 LenC2=   56033 LenP2D=  118692.
 LDataN:  DoStor=T MaxTD1= 6 Len=  172
 NBasis=   894 RedAO= T EigKep=  3.14D-05  NBF=   894
 NBsUse=   894 1.00D-06 EigRej= -1.00D+00 NBFU=   894
 Precomputing XC quadrature grid using
 IXCGrd= 4 IRadAn=           5 IRanWt=          -1 IRanGd=           0 AccXCQ= 0.00D+00.
 Generated NRdTot=       0 NPtTot=           0 NUsed=           0 NTot=          32
 NSgBfM=   998   997   997   997   998 MxSgAt=    48 MxSgA2=    48.
 Leave Link  302 at Sun Apr  9 10:21:27 2023, MaxMem=  2684354560 cpu:              38.4 elap:               2.4
 (Enter /opt/gaussian/g16/l303.exe)
 DipDrv:  MaxL=1.
 Leave Link  303 at Sun Apr  9 10:21:27 2023, MaxMem=  2684354560 cpu:               4.9 elap:               0.4
 (Enter /opt/gaussian/g16/l401.exe)
 ExpMin= 9.52D-02 ExpMax= 6.07D+04 ExpMxC= 2.07D+03 IAcc=3 IRadAn=         5 AccDes= 0.00D+00
 Harris functional with IExCor= 1009 and IRadAn=       5 diagonalized for initial guess.
 HarFok:  IExCor= 1009 AccDes= 0.00D+00 IRadAn=         5 IDoV= 1 UseB2=F ITyADJ=14
 ICtDFT=  3500011 ScaDFX=  1.000000  1.000000  1.000000  1.000000
 FoFCou: FMM=F IPFlag=           0 FMFlag=      100000 FMFlg1=           0
         NFxFlg=           0 DoJE=T BraDBF=F KetDBF=T FulRan=T
         wScrn=  0.000000 ICntrl=       500 IOpCl=  0 I1Cent=   200000004 NGrid=           0
         NMat0=    1 NMatS0=      1 NMatT0=    0 NMatD0=    1 NMtDS0=    0 NMtDT0=    0
 Symmetry not used in FoFCou.
 Harris En= -1507.21794398270    
 JPrj=0 DoOrth=F DoCkMO=F.
 Leave Link  401 at Sun Apr  9 10:21:37 2023, MaxMem=  2684354560 cpu:             149.2 elap:               9.4
 (Enter /opt/gaussian/g16/l502.exe)
 Two-electron integral symmetry not used.
 Closed shell SCF:
 Using DIIS extrapolation, IDIIS=  1040.
 NGot=  2684354560 LenX=  2682275214 LenY=  2681246004
 Requested convergence on RMS density matrix=1.00D-08 within 128 cycles.
 Requested convergence on MAX density matrix=1.00D-06.
 Requested convergence on             energy=1.00D-06.
 No special actions if energy rises.
 Fock matrices will be formed incrementally for  20 cycles.
 Integral accuracy reduced to 1.0D-05 until final iterations.

 Cycle   1  Pass 0  IDiag  1:
 FoFJK:  IHMeth= 1 ICntrl=       0 DoSepK=F KAlg= 0 I1Cent=           0 FoldK=F
 IRaf= 780000000 NMat=       1 IRICut=       1 DoRegI=T DoRafI=F ISym2E= 0 IDoP0=0 IntGTp=1.
 FoFCou: FMM=F IPFlag=           0 FMFlag=      100000 FMFlg1=           0
         NFxFlg=           0 DoJE=F BraDBF=F KetDBF=F FulRan=T
         wScrn=  0.000000 ICntrl=         0 IOpCl=  0 I1Cent=           0 NGrid=           0
         NMat0=    1 NMatS0=      1 NMatT0=    0 NMatD0=    1 NMtDS0=    0 NMtDT0=    0
 Symmetry not used in FoFCou.
 E= -1507.05751715473    
 DIIS: error= 1.33D-02 at cycle   1 NSaved=   1.
 NSaved= 1 IEnMin= 1 EnMin= -1507.05751715473     IErMin= 1 ErrMin= 1.33D-02
 ErrMax= 1.33D-02  0.00D+00 EMaxC= 1.00D-01 BMatC= 1.03D+00 BMatP= 1.03D+00
 IDIUse=3 WtCom= 8.67D-01 WtEn= 1.33D-01
 Coeff-Com:  0.100D+01
 Coeff-En:   0.100D+01
 Coeff:      0.100D+01
 Gap=     0.122 Goal=   None    Shift=    0.000
 GapD=    0.122 DampG=1.000 DampE=0.500 DampFc=0.5000 IDamp=-1.
 Damping current iteration by 5.00D-01
 RMSDP=4.00D-03 MaxDP=8.49D-01              OVMax= 6.44D-01

 Cycle   2  Pass 0  IDiag  1:
 RMSU=  2.00D-03    CP:  1.01D+00
 E= -1507.31148632919     Delta-E=       -0.253969174454 Rises=F Damp=T
 DIIS: error= 5.15D-03 at cycle   2 NSaved=   2.
 NSaved= 2 IEnMin= 2 EnMin= -1507.31148632919     IErMin= 2 ErrMin= 5.15D-03
 ErrMax= 5.15D-03  0.00D+00 EMaxC= 1.00D-01 BMatC= 1.36D-01 BMatP= 1.03D+00
 IDIUse=3 WtCom= 9.48D-01 WtEn= 5.15D-02
 Coeff-Com:  0.839D-01 0.916D+00
 Coeff-En:   0.271D+00 0.729D+00
 Coeff:      0.935D-01 0.906D+00
 Gap=     0.223 Goal=   None    Shift=    0.000
 RMSDP=1.57D-03 MaxDP=2.55D-01 DE=-2.54D-01 OVMax= 6.90D-01

 Cycle   3  Pass 0  IDiag  1:
 RMSU=  1.24D-03    CP:  9.93D-01  5.23D-01
 E= -1507.67435142512     Delta-E=       -0.362865095930 Rises=F Damp=F
 DIIS: error= 8.27D-03 at cycle   3 NSaved=   3.
 NSaved= 3 IEnMin= 3 EnMin= -1507.67435142512     IErMin= 2 ErrMin= 5.15D-03
 ErrMax= 8.27D-03  0.00D+00 EMaxC= 1.00D-01 BMatC= 1.54D-01 BMatP= 1.36D-01
 IDIUse=3 WtCom= 9.91D-02 WtEn= 9.01D-01
 Coeff-Com: -0.501D-01 0.539D+00 0.511D+00
 Coeff-En:   0.000D+00 0.000D+00 0.100D+01
 Coeff:     -0.496D-02 0.534D-01 0.952D+00
 Gap=     0.023 Goal=   None    Shift=    0.000
 RMSDP=1.95D-03 MaxDP=1.86D-01 DE=-3.63D-01 OVMax= 8.04D-01

 Cycle   4  Pass 0  IDiag  1:
 RMSU=  1.23D-03    CP:  9.98D-01  1.13D+00  2.69D-01
 E= -1507.03054790222     Delta-E=        0.643803522901 Rises=F Damp=F
 DIIS: error= 1.72D-02 at cycle   4 NSaved=   4.
 NSaved= 4 IEnMin= 3 EnMin= -1507.67435142512     IErMin= 2 ErrMin= 5.15D-03
 ErrMax= 1.72D-02  0.00D+00 EMaxC= 1.00D-01 BMatC= 6.48D-01 BMatP= 1.36D-01
 IDIUse=2 WtCom= 0.00D+00 WtEn= 1.00D+00
 Coeff-En:   0.000D+00 0.000D+00 0.771D+00 0.229D+00
 Coeff:      0.000D+00 0.000D+00 0.771D+00 0.229D+00
 Gap=     0.199 Goal=   None    Shift=    0.000
 RMSDP=1.24D-03 MaxDP=1.48D-01 DE= 6.44D-01 OVMax= 5.58D-01

 Cycle   5  Pass 0  IDiag  1:
 RMSU=  5.35D-04    CP:  9.95D-01  7.73D-01  6.47D-01  4.12D-01
 E= -1507.80397431288     Delta-E=       -0.773426410665 Rises=F Damp=F
 DIIS: error= 4.47D-03 at cycle   5 NSaved=   5.
 NSaved= 5 IEnMin= 5 EnMin= -1507.80397431288     IErMin= 5 ErrMin= 4.47D-03
 ErrMax= 4.47D-03  0.00D+00 EMaxC= 1.00D-01 BMatC= 4.16D-02 BMatP= 1.36D-01
 IDIUse=3 WtCom= 9.55D-01 WtEn= 4.47D-02
 Coeff-Com:  0.752D-02-0.466D-02 0.288D+00-0.471D-01 0.756D+00
 Coeff-En:   0.000D+00 0.000D+00 0.236D+00 0.000D+00 0.764D+00
 Coeff:      0.718D-02-0.445D-02 0.286D+00-0.450D-01 0.756D+00
 Gap=     0.126 Goal=   None    Shift=    0.000
 RMSDP=3.19D-04 MaxDP=2.50D-02 DE=-7.73D-01 OVMax= 1.32D-01

 Cycle   6  Pass 0  IDiag  1:
 RMSU=  1.71D-04    CP:  9.94D-01  6.83D-01  7.57D-01  3.02D-01  9.00D-01
 E= -1507.84806135873     Delta-E=       -0.044087045848 Rises=F Damp=F
 DIIS: error= 6.90D-04 at cycle   6 NSaved=   6.
 NSaved= 6 IEnMin= 6 EnMin= -1507.84806135873     IErMin= 6 ErrMin= 6.90D-04
 ErrMax= 6.90D-04  0.00D+00 EMaxC= 1.00D-01 BMatC= 6.69D-04 BMatP= 4.16D-02
 IDIUse=3 WtCom= 9.93D-01 WtEn= 6.90D-03
 Coeff-Com: -0.592D-03 0.535D-02 0.577D-01-0.461D-01 0.279D+00 0.705D+00
 Coeff-En:   0.000D+00 0.000D+00 0.000D+00 0.000D+00 0.000D+00 0.100D+01
 Coeff:     -0.588D-03 0.532D-02 0.573D-01-0.458D-01 0.277D+00 0.707D+00
 Gap=     0.136 Goal=   None    Shift=    0.000
 RMSDP=6.50D-05 MaxDP=5.13D-03 DE=-4.41D-02 OVMax= 1.78D-02

 Cycle   7  Pass 0  IDiag  1:
 RMSU=  6.12D-05    CP:  9.94D-01  6.83D-01  7.64D-01  2.95D-01  9.29D-01
                    CP:  9.46D-01
 E= -1507.84876374563     Delta-E=       -0.000702386898 Rises=F Damp=F
 DIIS: error= 3.32D-04 at cycle   7 NSaved=   7.
 NSaved= 7 IEnMin= 7 EnMin= -1507.84876374563     IErMin= 7 ErrMin= 3.32D-04
 ErrMax= 3.32D-04  0.00D+00 EMaxC= 1.00D-01 BMatC= 2.03D-04 BMatP= 6.69D-04
 IDIUse=3 WtCom= 9.97D-01 WtEn= 3.32D-03
 Coeff-Com: -0.185D-03-0.316D-03-0.113D-01-0.431D-02-0.173D-01 0.351D+00
 Coeff-Com:  0.682D+00
 Coeff-En:   0.000D+00 0.000D+00 0.000D+00 0.000D+00 0.000D+00 0.633D-01
 Coeff-En:   0.937D+00
 Coeff:     -0.184D-03-0.315D-03-0.113D-01-0.429D-02-0.172D-01 0.350D+00
 Coeff:      0.683D+00
 Gap=     0.135 Goal=   None    Shift=    0.000
 RMSDP=2.85D-05 MaxDP=3.32D-03 DE=-7.02D-04 OVMax= 6.12D-03

 Cycle   8  Pass 0  IDiag  1:
 RMSU=  2.66D-05    CP:  9.94D-01  6.82D-01  7.66D-01  2.95D-01  9.34D-01
                    CP:  9.99D-01  1.02D+00
 E= -1507.84896006111     Delta-E=       -0.000196315489 Rises=F Damp=F
 DIIS: error= 7.57D-05 at cycle   8 NSaved=   8.
 NSaved= 8 IEnMin= 8 EnMin= -1507.84896006111     IErMin= 8 ErrMin= 7.57D-05
 ErrMax= 7.57D-05  0.00D+00 EMaxC= 1.00D-01 BMatC= 1.69D-05 BMatP= 2.03D-04
 IDIUse=1 WtCom= 1.00D+00 WtEn= 0.00D+00
 Coeff-Com: -0.964D-05-0.557D-03-0.127D-01 0.214D-02-0.332D-01 0.130D+00
 Coeff-Com:  0.304D+00 0.610D+00
 Coeff:     -0.964D-05-0.557D-03-0.127D-01 0.214D-02-0.332D-01 0.130D+00
 Coeff:      0.304D+00 0.610D+00
 Gap=     0.135 Goal=   None    Shift=    0.000
 RMSDP=1.11D-05 MaxDP=1.02D-03 DE=-1.96D-04 OVMax= 2.42D-03

 Cycle   9  Pass 0  IDiag  1:
 RMSU=  8.53D-06    CP:  9.94D-01  6.82D-01  7.67D-01  2.97D-01  9.35D-01
                    CP:  1.02D+00  1.10D+00  1.09D+00
 E= -1507.84897138541     Delta-E=       -0.000011324298 Rises=F Damp=F
 DIIS: error= 7.15D-05 at cycle   9 NSaved=   9.
 NSaved= 9 IEnMin= 9 EnMin= -1507.84897138541     IErMin= 9 ErrMin= 7.15D-05
 ErrMax= 7.15D-05  0.00D+00 EMaxC= 1.00D-01 BMatC= 5.42D-06 BMatP= 1.69D-05
 IDIUse=1 WtCom= 1.00D+00 WtEn= 0.00D+00
 Coeff-Com: -0.127D-03 0.170D-03-0.535D-02 0.154D-02-0.675D-02-0.243D-02
 Coeff-Com: -0.612D-01 0.168D+00 0.906D+00
 Coeff:     -0.127D-03 0.170D-03-0.535D-02 0.154D-02-0.675D-02-0.243D-02
 Coeff:     -0.612D-01 0.168D+00 0.906D+00
 Gap=     0.134 Goal=   None    Shift=    0.000
 RMSDP=1.25D-05 MaxDP=1.11D-03 DE=-1.13D-05 OVMax= 1.02D-03

 Cycle  10  Pass 0  IDiag  1:
 RMSU=  8.43D-06    CP:  9.94D-01  6.83D-01  7.66D-01  3.00D-01  9.34D-01
                    CP:  1.05D+00  1.10D+00  1.23D+00  1.61D+00
 E= -1507.84897223686     Delta-E=       -0.000000851447 Rises=F Damp=F
 DIIS: error= 2.81D-05 at cycle  10 NSaved=  10.
 NSaved=10 IEnMin=10 EnMin= -1507.84897223686     IErMin=10 ErrMin= 2.81D-05
 ErrMax= 2.81D-05  0.00D+00 EMaxC= 1.00D-01 BMatC= 1.30D-06 BMatP= 5.42D-06
 IDIUse=1 WtCom= 1.00D+00 WtEn= 0.00D+00
 Coeff-Com: -0.120D-03 0.219D-03-0.258D-02 0.657D-03-0.376D-03-0.800D-02
 Coeff-Com: -0.694D-01 0.248D-01 0.503D+00 0.552D+00
 Coeff:     -0.120D-03 0.219D-03-0.258D-02 0.657D-03-0.376D-03-0.800D-02
 Coeff:     -0.694D-01 0.248D-01 0.503D+00 0.552D+00
 Gap=     0.134 Goal=   None    Shift=    0.000
 RMSDP=8.32D-06 MaxDP=6.36D-04 DE=-8.51D-07 OVMax= 3.30D-04

 Initial convergence to 1.0D-05 achieved.  Increase integral accuracy.
 Cycle  11  Pass 1  IDiag  1:
 E= -1507.84890669207     Delta-E=        0.000065544785 Rises=F Damp=F
 DIIS: error= 2.76D-04 at cycle   1 NSaved=   1.
 NSaved= 1 IEnMin= 1 EnMin= -1507.84890669207     IErMin= 1 ErrMin= 2.76D-04
 ErrMax= 2.76D-04  0.00D+00 EMaxC= 1.00D-01 BMatC= 7.83D-05 BMatP= 7.83D-05
 IDIUse=3 WtCom= 9.97D-01 WtEn= 2.76D-03
 Coeff-Com:  0.100D+01
 Coeff-En:   0.100D+01
 Coeff:      0.100D+01
 Gap=     0.134 Goal=   None    Shift=    0.000
 RMSDP=8.32D-06 MaxDP=6.36D-04 DE= 6.55D-05 OVMax= 9.75D-04

 Cycle  12  Pass 1  IDiag  1:
 RMSU=  4.02D-04    CP:  9.96D-01
 E= -1507.84895433283     Delta-E=       -0.000047640760 Rises=F Damp=F
 DIIS: error= 2.22D-05 at cycle   2 NSaved=   2.
 NSaved= 2 IEnMin= 2 EnMin= -1507.84895433283     IErMin= 2 ErrMin= 2.22D-05
 ErrMax= 2.22D-05  0.00D+00 EMaxC= 1.00D-01 BMatC= 6.65D-07 BMatP= 7.83D-05
 IDIUse=1 WtCom= 1.00D+00 WtEn= 0.00D+00
 Coeff-Com: -0.353D-02 0.100D+01
 Coeff:     -0.353D-02 0.100D+01
 Gap=     0.135 Goal=   None    Shift=    0.000
 RMSDP=1.50D-05 MaxDP=9.75D-04 DE=-4.76D-05 OVMax= 1.75D-03

 Cycle  13  Pass 1  IDiag  1:
 RMSU=  6.19D-06    CP:  9.95D-01  1.03D+00
 E= -1507.84895233426     Delta-E=        0.000001998572 Rises=F Damp=F
 DIIS: error= 4.09D-05 at cycle   3 NSaved=   3.
 NSaved= 3 IEnMin= 2 EnMin= -1507.84895433283     IErMin= 2 ErrMin= 2.22D-05
 ErrMax= 4.09D-05  0.00D+00 EMaxC= 1.00D-01 BMatC= 2.50D-06 BMatP= 6.65D-07
 IDIUse=1 WtCom= 1.00D+00 WtEn= 0.00D+00
 Coeff-Com: -0.111D-01 0.671D+00 0.340D+00
 Coeff:     -0.111D-01 0.671D+00 0.340D+00
 Gap=     0.134 Goal=   None    Shift=    0.000
 RMSDP=2.89D-06 MaxDP=2.77D-04 DE= 2.00D-06 OVMax= 1.10D-03

 Cycle  14  Pass 1  IDiag  1:
 RMSU=  2.25D-06    CP:  9.95D-01  1.03D+00  7.16D-01
 E= -1507.84895512587     Delta-E=       -0.000002791609 Rises=F Damp=F
 DIIS: error= 1.34D-06 at cycle   4 NSaved=   4.
 NSaved= 4 IEnMin= 4 EnMin= -1507.84895512587     IErMin= 4 ErrMin= 1.34D-06
 ErrMax= 1.34D-06  0.00D+00 EMaxC= 1.00D-01 BMatC= 5.61D-09 BMatP= 6.65D-07
 IDIUse=1 WtCom= 1.00D+00 WtEn= 0.00D+00
 Coeff-Com: -0.378D-02 0.216D+00 0.105D+00 0.683D+00
 Coeff:     -0.378D-02 0.216D+00 0.105D+00 0.683D+00
 Gap=     0.134 Goal=   None    Shift=    0.000
 RMSDP=3.29D-07 MaxDP=2.29D-05 DE=-2.79D-06 OVMax= 4.03D-05

 Cycle  15  Pass 1  IDiag  1:
 RMSU=  1.92D-07    CP:  9.95D-01  1.03D+00  7.43D-01  1.04D+00
 E= -1507.84895512949     Delta-E=       -0.000000003614 Rises=F Damp=F
 DIIS: error= 1.25D-06 at cycle   5 NSaved=   5.
 NSaved= 5 IEnMin= 5 EnMin= -1507.84895512949     IErMin= 5 ErrMin= 1.25D-06
 ErrMax= 1.25D-06  0.00D+00 EMaxC= 1.00D-01 BMatC= 2.48D-09 BMatP= 5.61D-09
 IDIUse=1 WtCom= 1.00D+00 WtEn= 0.00D+00
 Coeff-Com:  0.302D-03-0.254D-01-0.229D-01 0.371D+00 0.677D+00
 Coeff:      0.302D-03-0.254D-01-0.229D-01 0.371D+00 0.677D+00
 Gap=     0.134 Goal=   None    Shift=    0.000
 RMSDP=1.68D-07 MaxDP=1.35D-05 DE=-3.61D-09 OVMax= 1.44D-05

 Cycle  16  Pass 1  IDiag  1:
 RMSU=  8.94D-08    CP:  9.95D-01  1.04D+00  7.51D-01  1.08D+00  1.13D+00
 E= -1507.84895513180     Delta-E=       -0.000000002313 Rises=F Damp=F
 DIIS: error= 2.89D-07 at cycle   6 NSaved=   6.
 NSaved= 6 IEnMin= 6 EnMin= -1507.84895513180     IErMin= 6 ErrMin= 2.89D-07
 ErrMax= 2.89D-07  0.00D+00 EMaxC= 1.00D-01 BMatC= 3.46D-10 BMatP= 2.48D-09
 IDIUse=1 WtCom= 1.00D+00 WtEn= 0.00D+00
 Coeff-Com:  0.460D-03-0.305D-01-0.235D-01 0.140D+00 0.360D+00 0.554D+00
 Coeff:      0.460D-03-0.305D-01-0.235D-01 0.140D+00 0.360D+00 0.554D+00
 Gap=     0.134 Goal=   None    Shift=    0.000
 RMSDP=4.24D-08 MaxDP=4.08D-06 DE=-2.31D-09 OVMax= 8.13D-06

 Cycle  17  Pass 1  IDiag  1:
 RMSU=  2.92D-08    CP:  9.95D-01  1.04D+00  7.53D-01  1.08D+00  1.26D+00
                    CP:  1.06D+00
 E= -1507.84895513208     Delta-E=       -0.000000000285 Rises=F Damp=F
 DIIS: error= 1.97D-07 at cycle   7 NSaved=   7.
 NSaved= 7 IEnMin= 7 EnMin= -1507.84895513208     IErMin= 7 ErrMin= 1.97D-07
 ErrMax= 1.97D-07  0.00D+00 EMaxC= 1.00D-01 BMatC= 5.22D-11 BMatP= 3.46D-10
 IDIUse=1 WtCom= 1.00D+00 WtEn= 0.00D+00
 Coeff-Com:  0.308D-04-0.641D-03-0.313D-02-0.607D-01-0.888D-01 0.142D+00
 Coeff-Com:  0.101D+01
 Coeff:      0.308D-04-0.641D-03-0.313D-02-0.607D-01-0.888D-01 0.142D+00
 Coeff:      0.101D+01
 Gap=     0.134 Goal=   None    Shift=    0.000
 RMSDP=3.31D-08 MaxDP=4.06D-06 DE=-2.85D-10 OVMax= 5.27D-06

 Cycle  18  Pass 1  IDiag  1:
 RMSU=  1.62D-08    CP:  9.95D-01  1.04D+00  7.52D-01  1.09D+00  1.35D+00
                    CP:  1.24D+00  1.38D+00
 E= -1507.84895513219     Delta-E=       -0.000000000106 Rises=F Damp=F
 DIIS: error= 6.80D-08 at cycle   8 NSaved=   8.
 NSaved= 8 IEnMin= 8 EnMin= -1507.84895513219     IErMin= 8 ErrMin= 6.80D-08
 ErrMax= 6.80D-08  0.00D+00 EMaxC= 1.00D-01 BMatC= 6.34D-12 BMatP= 5.22D-11
 IDIUse=1 WtCom= 1.00D+00 WtEn= 0.00D+00
 Coeff-Com: -0.409D-04 0.336D-02 0.726D-03-0.440D-01-0.815D-01 0.526D-02
 Coeff-Com:  0.465D+00 0.652D+00
 Coeff:     -0.409D-04 0.336D-02 0.726D-03-0.440D-01-0.815D-01 0.526D-02
 Coeff:      0.465D+00 0.652D+00
 Gap=     0.134 Goal=   None    Shift=    0.000
 RMSDP=8.25D-09 MaxDP=9.32D-07 DE=-1.06D-10 OVMax= 1.92D-06

 SCF Done:  E(RM062X) =  -1507.84895513     A.U. after   18 cycles
            NFock= 18  Conv=0.82D-08     -V/T= 2.0039
 KE= 1.502043636279D+03 PE=-8.404140651403D+03 EE= 2.961342947284D+03
 Leave Link  502 at Sun Apr  9 10:41:14 2023, MaxMem=  2684354560 cpu:           18833.0 elap:            1177.6
 (Enter /opt/gaussian/g16/l601.exe)
 Copying SCF densities to generalized density rwf, IOpCl= 0 IROHF=0.

 **********************************************************************

            Population analysis using the SCF density.

 **********************************************************************

 Alpha  occ. eigenvalues --  -89.86283 -19.66044 -19.64157 -19.62376 -19.61707
 Alpha  occ. eigenvalues --  -19.56147 -14.85351 -14.78464 -10.67299 -10.65559
 Alpha  occ. eigenvalues --  -10.63008 -10.61908 -10.61246 -10.61125 -10.61042
 Alpha  occ. eigenvalues --  -10.59378 -10.58849 -10.58550 -10.57410 -10.54854
 Alpha  occ. eigenvalues --  -10.52572 -10.52106 -10.50931 -10.49271  -8.22263
 Alpha  occ. eigenvalues --   -6.14216  -6.13993  -6.13763  -1.20813  -1.19370
 Alpha  occ. eigenvalues --   -1.17059  -1.14369  -1.13307  -1.09609  -1.02604
 Alpha  occ. eigenvalues --   -0.96520  -0.91828  -0.89509  -0.88034  -0.87332
 Alpha  occ. eigenvalues --   -0.85050  -0.80974  -0.78911  -0.78660  -0.75721
 Alpha  occ. eigenvalues --   -0.72013  -0.71273  -0.69350  -0.68124  -0.65994
 Alpha  occ. eigenvalues --   -0.64954  -0.64254  -0.61874  -0.61144  -0.60765
 Alpha  occ. eigenvalues --   -0.59347  -0.57265  -0.56590  -0.56171  -0.55651
 Alpha  occ. eigenvalues --   -0.54619  -0.54018  -0.52712  -0.51746  -0.50909
 Alpha  occ. eigenvalues --   -0.50499  -0.50311  -0.50032  -0.49569  -0.49099
 Alpha  occ. eigenvalues --   -0.47917  -0.47646  -0.47031  -0.46350  -0.46272
 Alpha  occ. eigenvalues --   -0.45381  -0.44636  -0.43928  -0.43126  -0.42747
 Alpha  occ. eigenvalues --   -0.41634  -0.40271  -0.39454  -0.38675  -0.38035
 Alpha  occ. eigenvalues --   -0.37296  -0.36561  -0.36138  -0.35954  -0.35070
 Alpha  occ. eigenvalues --   -0.34811  -0.33115  -0.28278  -0.27139  -0.19830
 Alpha virt. eigenvalues --   -0.06388  -0.03192   0.03963   0.04081   0.05061
 Alpha virt. eigenvalues --    0.05416   0.07147   0.07291   0.08287   0.09026
 Alpha virt. eigenvalues --    0.09536   0.09804   0.10045   0.10885   0.11035
 Alpha virt. eigenvalues --    0.11543   0.11794   0.12712   0.13083   0.13882
 Alpha virt. eigenvalues --    0.14170   0.14458   0.14667   0.15140   0.15531
 Alpha virt. eigenvalues --    0.15943   0.16661   0.17011   0.17289   0.17414
 Alpha virt. eigenvalues --    0.18153   0.18808   0.19031   0.19253   0.19751
 Alpha virt. eigenvalues --    0.20390   0.20964   0.21165   0.22006   0.22333
 Alpha virt. eigenvalues --    0.22720   0.22865   0.23676   0.24039   0.24479
 Alpha virt. eigenvalues --    0.24678   0.25185   0.25480   0.25952   0.26519
 Alpha virt. eigenvalues --    0.26755   0.27301   0.27906   0.28210   0.28365
 Alpha virt. eigenvalues --    0.29266   0.30152   0.30305   0.30654   0.30691
 Alpha virt. eigenvalues --    0.31483   0.31627   0.32129   0.32176   0.32813
 Alpha virt. eigenvalues --    0.33289   0.33955   0.34474   0.35050   0.35270
 Alpha virt. eigenvalues --    0.35965   0.36419   0.37228   0.37379   0.38125
 Alpha virt. eigenvalues --    0.38441   0.39027   0.39316   0.39825   0.40147
 Alpha virt. eigenvalues --    0.40522   0.40779   0.41476   0.41540   0.41821
 Alpha virt. eigenvalues --    0.42322   0.42605   0.43060   0.43771   0.43874
 Alpha virt. eigenvalues --    0.44361   0.44615   0.45134   0.45465   0.45953
 Alpha virt. eigenvalues --    0.46055   0.46566   0.46762   0.46970   0.47301
 Alpha virt. eigenvalues --    0.47559   0.47752   0.48452   0.48539   0.48935
 Alpha virt. eigenvalues --    0.49301   0.50142   0.50351   0.50649   0.50828
 Alpha virt. eigenvalues --    0.51257   0.51549   0.52049   0.52430   0.52606
 Alpha virt. eigenvalues --    0.53054   0.53517   0.53783   0.53878   0.54233
 Alpha virt. eigenvalues --    0.54580   0.55391   0.55823   0.56434   0.56992
 Alpha virt. eigenvalues --    0.57218   0.57725   0.58440   0.58900   0.59166
 Alpha virt. eigenvalues --    0.59274   0.59570   0.60682   0.61136   0.62316
 Alpha virt. eigenvalues --    0.62483   0.62843   0.63549   0.64037   0.64750
 Alpha virt. eigenvalues --    0.65817   0.66000   0.66824   0.67491   0.68184
 Alpha virt. eigenvalues --    0.68581   0.68858   0.69537   0.69859   0.70344
 Alpha virt. eigenvalues --    0.71083   0.71370   0.71696   0.72701   0.73662
 Alpha virt. eigenvalues --    0.74120   0.74213   0.76425   0.76605   0.77253
 Alpha virt. eigenvalues --    0.77643   0.78222   0.79149   0.80429   0.80918
 Alpha virt. eigenvalues --    0.81059   0.81930   0.82412   0.83525   0.83868
 Alpha virt. eigenvalues --    0.84403   0.84915   0.85658   0.86158   0.87106
 Alpha virt. eigenvalues --    0.87622   0.87992   0.88884   0.89088   0.89956
 Alpha virt. eigenvalues --    0.90535   0.91539   0.92118   0.92607   0.93030
 Alpha virt. eigenvalues --    0.93958   0.94638   0.95372   0.95548   0.96392
 Alpha virt. eigenvalues --    0.96992   0.97370   0.97869   0.98783   0.99328
 Alpha virt. eigenvalues --    1.00045   1.00481   1.01193   1.02085   1.03510
 Alpha virt. eigenvalues --    1.03681   1.04496   1.04888   1.05330   1.05849
 Alpha virt. eigenvalues --    1.06641   1.07854   1.08383   1.08746   1.09155
 Alpha virt. eigenvalues --    1.10275   1.10807   1.11479   1.12749   1.13154
 Alpha virt. eigenvalues --    1.13636   1.13933   1.14480   1.15056   1.15127
 Alpha virt. eigenvalues --    1.16858   1.17169   1.17721   1.18292   1.19187
 Alpha virt. eigenvalues --    1.20636   1.21426   1.21842   1.22280   1.22956
 Alpha virt. eigenvalues --    1.23685   1.24395   1.25747   1.26345   1.26912
 Alpha virt. eigenvalues --    1.27414   1.28414   1.28999   1.30021   1.30437
 Alpha virt. eigenvalues --    1.30721   1.32413   1.33079   1.34362   1.34849
 Alpha virt. eigenvalues --    1.35373   1.36867   1.37102   1.38782   1.39099
 Alpha virt. eigenvalues --    1.39484   1.40014   1.41538   1.42391   1.43903
 Alpha virt. eigenvalues --    1.44449   1.45103   1.46905   1.49162   1.49543
 Alpha virt. eigenvalues --    1.50242   1.50348   1.51574   1.52072   1.53069
 Alpha virt. eigenvalues --    1.53254   1.53932   1.54136   1.55562   1.55794
 Alpha virt. eigenvalues --    1.56535   1.56778   1.57384   1.57756   1.58114
 Alpha virt. eigenvalues --    1.59148   1.59489   1.59805   1.60020   1.61266
 Alpha virt. eigenvalues --    1.61514   1.62080   1.62100   1.62352   1.62717
 Alpha virt. eigenvalues --    1.63660   1.64028   1.64261   1.65358   1.66073
 Alpha virt. eigenvalues --    1.66630   1.67290   1.67760   1.68097   1.68834
 Alpha virt. eigenvalues --    1.69294   1.69401   1.70034   1.71043   1.71291
 Alpha virt. eigenvalues --    1.72421   1.72920   1.73189   1.73817   1.74366
 Alpha virt. eigenvalues --    1.75365   1.75931   1.76198   1.77582   1.78251
 Alpha virt. eigenvalues --    1.79009   1.79732   1.80435   1.81384   1.81632
 Alpha virt. eigenvalues --    1.81963   1.82482   1.83166   1.84093   1.85912
 Alpha virt. eigenvalues --    1.86211   1.86556   1.86861   1.87969   1.88123
 Alpha virt. eigenvalues --    1.89256   1.89879   1.90251   1.90533   1.91087
 Alpha virt. eigenvalues --    1.92289   1.92690   1.93085   1.93492   1.93549
 Alpha virt. eigenvalues --    1.94613   1.94813   1.96170   1.96945   1.97614
 Alpha virt. eigenvalues --    1.98158   1.98774   1.99134   2.00491   2.00988
 Alpha virt. eigenvalues --    2.02846   2.03011   2.03464   2.05178   2.05334
 Alpha virt. eigenvalues --    2.05646   2.06033   2.07215   2.07353   2.08797
 Alpha virt. eigenvalues --    2.08906   2.09600   2.10091   2.10913   2.11899
 Alpha virt. eigenvalues --    2.12105   2.13245   2.13406   2.14760   2.15116
 Alpha virt. eigenvalues --    2.15431   2.15944   2.17117   2.18296   2.19010
 Alpha virt. eigenvalues --    2.19537   2.20132   2.21386   2.21601   2.21964
 Alpha virt. eigenvalues --    2.22003   2.23211   2.24094   2.25281   2.26323
 Alpha virt. eigenvalues --    2.26837   2.27263   2.27889   2.28290   2.28724
 Alpha virt. eigenvalues --    2.29290   2.30047   2.30333   2.31086   2.31794
 Alpha virt. eigenvalues --    2.32253   2.32582   2.33906   2.34243   2.34761
 Alpha virt. eigenvalues --    2.35503   2.37914   2.37976   2.38524   2.39692
 Alpha virt. eigenvalues --    2.40696   2.41249   2.42558   2.43898   2.44170
 Alpha virt. eigenvalues --    2.44526   2.45198   2.45768   2.46301   2.46730
 Alpha virt. eigenvalues --    2.47225   2.48032   2.48103   2.48984   2.50246
 Alpha virt. eigenvalues --    2.51730   2.52438   2.53780   2.54054   2.54958
 Alpha virt. eigenvalues --    2.56073   2.57031   2.57306   2.57976   2.58618
 Alpha virt. eigenvalues --    2.59171   2.59752   2.60534   2.60844   2.61703
 Alpha virt. eigenvalues --    2.61941   2.62372   2.63233   2.64459   2.64620
 Alpha virt. eigenvalues --    2.65439   2.66796   2.67527   2.68247   2.69119
 Alpha virt. eigenvalues --    2.69483   2.69735   2.70508   2.70748   2.71280
 Alpha virt. eigenvalues --    2.71594   2.72352   2.72997   2.73323   2.73864
 Alpha virt. eigenvalues --    2.75178   2.75735   2.76351   2.77051   2.77617
 Alpha virt. eigenvalues --    2.77934   2.79064   2.79889   2.80492   2.81012
 Alpha virt. eigenvalues --    2.81119   2.81405   2.83494   2.83706   2.84790
 Alpha virt. eigenvalues --    2.84903   2.85353   2.85845   2.86803   2.87639
 Alpha virt. eigenvalues --    2.88098   2.89384   2.90392   2.91029   2.92301
 Alpha virt. eigenvalues --    2.93087   2.93838   2.94422   2.95240   2.95827
 Alpha virt. eigenvalues --    2.97594   2.98129   2.98515   2.99033   2.99763
 Alpha virt. eigenvalues --    3.00661   3.01514   3.01568   3.02022   3.03006
 Alpha virt. eigenvalues --    3.03255   3.04326   3.05004   3.05781   3.06279
 Alpha virt. eigenvalues --    3.07252   3.07880   3.08003   3.08977   3.10009
 Alpha virt. eigenvalues --    3.10823   3.11273   3.11560   3.11778   3.13048
 Alpha virt. eigenvalues --    3.13521   3.13626   3.14335   3.15252   3.15479
 Alpha virt. eigenvalues --    3.16447   3.17182   3.17435   3.18540   3.18765
 Alpha virt. eigenvalues --    3.18887   3.19592   3.20560   3.20807   3.20916
 Alpha virt. eigenvalues --    3.22172   3.23246   3.23857   3.24171   3.24747
 Alpha virt. eigenvalues --    3.24807   3.26336   3.26681   3.27410   3.28081
 Alpha virt. eigenvalues --    3.29206   3.29849   3.30291   3.30464   3.31324
 Alpha virt. eigenvalues --    3.31890   3.32202   3.32871   3.33687   3.34046
 Alpha virt. eigenvalues --    3.34858   3.34936   3.35602   3.36723   3.37410
 Alpha virt. eigenvalues --    3.37704   3.37775   3.38443   3.39058   3.39368
 Alpha virt. eigenvalues --    3.39586   3.40514   3.40940   3.41522   3.41857
 Alpha virt. eigenvalues --    3.42557   3.43321   3.43376   3.44667   3.45350
 Alpha virt. eigenvalues --    3.45846   3.46121   3.47517   3.47992   3.48798
 Alpha virt. eigenvalues --    3.49006   3.49642   3.50576   3.50810   3.51351
 Alpha virt. eigenvalues --    3.52925   3.53099   3.54198   3.54917   3.55906
 Alpha virt. eigenvalues --    3.56372   3.56890   3.58044   3.58380   3.59528
 Alpha virt. eigenvalues --    3.60164   3.60939   3.62229   3.63300   3.64568
 Alpha virt. eigenvalues --    3.65790   3.66421   3.68870   3.69713   3.69812
 Alpha virt. eigenvalues --    3.71019   3.71958   3.72575   3.73925   3.74664
 Alpha virt. eigenvalues --    3.74945   3.75411   3.76206   3.77084   3.78077
 Alpha virt. eigenvalues --    3.79368   3.80311   3.82306   3.82873   3.83626
 Alpha virt. eigenvalues --    3.85265   3.86296   3.86729   3.87910   3.88555
 Alpha virt. eigenvalues --    3.89542   3.90372   3.91648   3.93100   3.93349
 Alpha virt. eigenvalues --    3.94299   3.95169   3.96588   3.97528   3.99433
 Alpha virt. eigenvalues --    4.00364   4.00929   4.04272   4.04839   4.06287
 Alpha virt. eigenvalues --    4.07058   4.07312   4.08578   4.10526   4.10733
 Alpha virt. eigenvalues --    4.11168   4.12980   4.13859   4.15152   4.17977
 Alpha virt. eigenvalues --    4.19327   4.20378   4.22884   4.23813   4.24906
 Alpha virt. eigenvalues --    4.25637   4.27153   4.28075   4.29215   4.30147
 Alpha virt. eigenvalues --    4.31139   4.31826   4.32170   4.33953   4.35311
 Alpha virt. eigenvalues --    4.38022   4.38663   4.40589   4.41054   4.41976
 Alpha virt. eigenvalues --    4.44048   4.44249   4.45827   4.46784   4.47938
 Alpha virt. eigenvalues --    4.50211   4.50701   4.53512   4.54241   4.56852
 Alpha virt. eigenvalues --    4.59381   4.61764   4.63021   4.66616   4.66857
 Alpha virt. eigenvalues --    4.69440   4.72123   4.73987   4.75006   4.76006
 Alpha virt. eigenvalues --    4.77010   4.77851   4.80425   4.81143   4.82400
 Alpha virt. eigenvalues --    4.84116   4.85522   4.88403   4.89075   4.90496
 Alpha virt. eigenvalues --    4.91479   4.91942   4.95115   4.95942   4.96992
 Alpha virt. eigenvalues --    4.98016   4.98422   5.00941   5.01674   5.04476
 Alpha virt. eigenvalues --    5.07179   5.07548   5.12095   5.15082   5.18967
 Alpha virt. eigenvalues --    5.21092   5.21949   5.24740   5.26859   5.26974
 Alpha virt. eigenvalues --    5.28484   5.29357   5.29506   5.31264   5.36317
 Alpha virt. eigenvalues --    5.38793   5.41147   5.43194   5.44733   5.46559
 Alpha virt. eigenvalues --    5.48299   5.49948   5.52650   5.54496   5.58625
 Alpha virt. eigenvalues --    5.62610   5.62793   5.71136   5.74465   5.76075
 Alpha virt. eigenvalues --    5.77213   5.79072   5.81859   5.82596   5.83888
 Alpha virt. eigenvalues --    5.84827   5.86324   5.87947   5.90260   5.94104
 Alpha virt. eigenvalues --    5.97341   6.00304   6.05674   6.17815   6.18949
 Alpha virt. eigenvalues --    6.22416   6.23875   6.27025   6.31029   6.37272
 Alpha virt. eigenvalues --    6.39549   6.41293   6.50466   6.51665   6.53174
 Alpha virt. eigenvalues --    6.55586   6.61922   6.69112   6.72312   6.72627
 Alpha virt. eigenvalues --    6.75394   6.78637   6.83572   6.84241   6.85926
 Alpha virt. eigenvalues --    6.89369   6.90218   6.98927   7.04482   7.06024
 Alpha virt. eigenvalues --    7.08405   7.09507   7.11268   7.16608   7.23312
 Alpha virt. eigenvalues --    7.26227   7.31663   9.03964   9.43995   9.57484
 Alpha virt. eigenvalues --   19.95704  22.34538  22.44593  22.55526  22.57763
 Alpha virt. eigenvalues --   22.62477  22.68823  22.70232  22.76068  22.80218
 Alpha virt. eigenvalues --   22.82593  22.90195  22.94342  23.07383  23.14318
 Alpha virt. eigenvalues --   23.22077  23.36873  32.09081  33.15582  44.11624
 Alpha virt. eigenvalues --   44.20568  44.22588  44.27648  44.49228
          Condensed to atoms (all electrons):
               1          2          3          4          5          6
     1  C    5.104195   0.424130   0.418262  -0.006997   0.000463  -0.000381
     2  H    0.424130   0.510068  -0.022446  -0.001088   0.000230  -0.000003
     3  H    0.418262  -0.022446   0.534521   0.001680  -0.000016  -0.000006
     4  C   -0.006997  -0.001088   0.001680   5.395855   0.492304   0.289653
     5  H    0.000463   0.000230  -0.000016   0.492304   0.554298  -0.032731
     6  O   -0.000381  -0.000003  -0.000006   0.289653  -0.032731   8.041061
     7  H   -0.000066  -0.000004   0.000005  -0.036622  -0.013488   0.277591
     8  C    0.013607   0.012885  -0.009623  -0.032730  -0.064905  -0.057085
     9  H    0.011113   0.000126  -0.002305  -0.099542   0.001506   0.004267
    10  O    0.006874  -0.000371   0.000284  -0.040593   0.001434  -0.009292
    11  H   -0.001420  -0.000122   0.000473   0.015609  -0.000746  -0.000502
    12  C   -0.004805  -0.000128   0.000627   0.005360  -0.099825  -0.037353
    13  H    0.000033   0.000012   0.000106  -0.084670   0.006792   0.010005
    14  C    0.167136  -0.050064  -0.042066   0.120340   0.013841   0.006673
    15  H   -0.069604  -0.007218  -0.003296  -0.007538   0.000014   0.000116
    16  O   -0.028772   0.000814   0.005064  -0.058917   0.002009   0.005126
    17  N    0.000003  -0.000053  -0.000033   0.009227  -0.011644  -0.002953
    18  C   -0.000952   0.000007   0.000020  -0.009461  -0.001292   0.003417
    19  H   -0.000057  -0.000043   0.000028  -0.008426  -0.000602   0.000764
    20  C    0.000040  -0.000001  -0.000001   0.006657   0.006327  -0.001332
    21  H    0.000003   0.000000  -0.000000   0.000016   0.000110  -0.000020
    22  C   -0.000014   0.000000   0.000000   0.001368  -0.000391   0.000094
    23  H   -0.000000   0.000000  -0.000000   0.000024  -0.000000   0.000001
    24  H    0.000000  -0.000000  -0.000000  -0.000294  -0.000119  -0.000000
    25  C   -0.000057  -0.000005   0.000001  -0.008580  -0.000027  -0.000195
    26  C   -0.000334   0.000045  -0.000005   0.014619  -0.001535  -0.004997
    27  H   -0.000019   0.000001  -0.000000   0.000602  -0.000104  -0.000107
    28  C    0.000000  -0.000000  -0.000000  -0.000027   0.000007  -0.000005
    29  O   -0.000000   0.000000  -0.000000   0.000007  -0.000000  -0.000000
    30  N   -0.000000   0.000000   0.000000  -0.000000  -0.000000   0.000000
    31  H   -0.000000   0.000000   0.000000   0.000000   0.000000  -0.000000
    32  H    0.000000   0.000000  -0.000000   0.000000   0.000000   0.000000
    33  C    0.000001  -0.000000   0.000000   0.000094  -0.000370  -0.014727
    34  C    0.000001  -0.000000   0.000000   0.001687   0.000361   0.008908
    35  C    0.000000   0.000000  -0.000000  -0.000109   0.000215   0.000995
    36  C   -0.000000   0.000000   0.000000   0.000006   0.000000  -0.000001
    37  C   -0.000000   0.000000   0.000000   0.000003   0.000026  -0.000019
    38  O   -0.000000   0.000000  -0.000000   0.002654  -0.000104  -0.033008
    39  S   -0.000000  -0.000000  -0.000000  -0.000087   0.000010   0.000777
    40  H   -0.000000   0.000000  -0.000000   0.000133   0.000032   0.000215
    41  H   -0.000003   0.000000  -0.000000  -0.000317   0.000424   0.009015
    42  H    0.000000  -0.000000   0.000000  -0.000000  -0.000000  -0.000000
    43  H    0.000000  -0.000000  -0.000000  -0.000000  -0.000000   0.000000
    44  H    0.000000  -0.000000  -0.000000  -0.000000  -0.000000   0.000000
    45  H   -0.000000   0.000000   0.000000   0.000008   0.000007   0.000025
    46  H    0.000000  -0.000000  -0.000000  -0.000001   0.000000   0.000026
    47  H    0.378533  -0.023077  -0.025115   0.000731  -0.000216   0.000026
    48  H    0.000000   0.000000  -0.000000  -0.000030   0.000002   0.000232
               7          8          9         10         11         12
     1  C   -0.000066   0.013607   0.011113   0.006874  -0.001420  -0.004805
     2  H   -0.000004   0.012885   0.000126  -0.000371  -0.000122  -0.000128
     3  H    0.000005  -0.009623  -0.002305   0.000284   0.000473   0.000627
     4  C   -0.036622  -0.032730  -0.099542  -0.040593   0.015609   0.005360
     5  H   -0.013488  -0.064905   0.001506   0.001434  -0.000746  -0.099825
     6  O    0.277591  -0.057085   0.004267  -0.009292  -0.000502  -0.037353
     7  H    0.360243   0.011144  -0.000392  -0.000693   0.000192   0.007648
     8  C    0.011144   5.469504   0.516117   0.302776  -0.046380  -0.012897
     9  H   -0.000392   0.516117   0.574878  -0.053512  -0.007495   0.012256
    10  O   -0.000693   0.302776  -0.053512   7.984180   0.294614  -0.024105
    11  H    0.000192  -0.046380  -0.007495   0.294614   0.430063  -0.001698
    12  C    0.007648  -0.012897   0.012256  -0.024105  -0.001698   5.540157
    13  H   -0.001157   0.013237   0.002532   0.015463  -0.001104   0.431231
    14  C   -0.000786   0.017214  -0.127611  -0.062434   0.002891  -0.089137
    15  H    0.000073  -0.043129   0.010280  -0.000114   0.003144  -0.000000
    16  O    0.000157  -0.030797   0.005354   0.008512  -0.000016   0.251340
    17  N    0.005139   0.000784  -0.000646  -0.000095   0.000012   0.224739
    18  C   -0.000961  -0.003265  -0.000161  -0.000196   0.000010  -0.093702
    19  H    0.000243   0.001130  -0.000035   0.000003   0.000002   0.009837
    20  C   -0.001728  -0.001355   0.000043   0.000008  -0.000001   0.015886
    21  H   -0.000017  -0.000008   0.000001   0.000000  -0.000000   0.000379
    22  C    0.000389  -0.000018  -0.000005  -0.000004   0.000000  -0.019939
    23  H   -0.000010   0.000000  -0.000000  -0.000000   0.000000  -0.000112
    24  H    0.000508   0.000029  -0.000000  -0.000000   0.000000   0.002379
    25  C    0.000856  -0.000407   0.000000  -0.000019  -0.000001  -0.002420
    26  C   -0.001765  -0.004129  -0.000098  -0.000495  -0.000038  -0.075928
    27  H    0.000058  -0.000108  -0.000008  -0.000126   0.000005  -0.002265
    28  C    0.000020   0.000005   0.000000   0.000000  -0.000000   0.000696
    29  O    0.000003   0.000000   0.000000  -0.000000  -0.000000   0.000492
    30  N   -0.000000  -0.000000  -0.000000  -0.000000  -0.000000   0.000021
    31  H   -0.000000  -0.000000   0.000000  -0.000000  -0.000000  -0.000005
    32  H   -0.000000  -0.000000  -0.000000   0.000000  -0.000000  -0.000012
    33  C    0.003296   0.000575   0.000013  -0.000633   0.000041   0.000090
    34  C   -0.010017   0.000019  -0.000016   0.000017   0.000001  -0.001677
    35  C    0.000259  -0.000152   0.000001   0.000000  -0.000000  -0.001709
    36  C   -0.000012  -0.000000   0.000000  -0.000000  -0.000000  -0.000038
    37  C   -0.000538   0.000003   0.000000   0.000000  -0.000000  -0.000635
    38  O    0.050384  -0.000117  -0.000002  -0.000001  -0.000000   0.001098
    39  S   -0.000927  -0.000045  -0.000002  -0.000002  -0.000001   0.000395
    40  H   -0.000509  -0.000042  -0.000000   0.000011  -0.000001   0.000016
    41  H   -0.010743  -0.000867   0.000016   0.001978  -0.000134  -0.000267
    42  H    0.000001   0.000000  -0.000000   0.000000  -0.000000   0.000002
    43  H    0.000001   0.000000  -0.000000   0.000000   0.000000   0.000003
    44  H    0.000000   0.000000  -0.000000   0.000000   0.000000   0.000000
    45  H   -0.000195  -0.000000   0.000000  -0.000000  -0.000000  -0.000073
    46  H   -0.000114  -0.000000  -0.000000  -0.000000   0.000000   0.000129
    47  H    0.000026  -0.013736   0.000478   0.000226   0.000157  -0.001010
    48  H    0.000309  -0.000020   0.000002   0.000004  -0.000002   0.000008
              13         14         15         16         17         18
     1  C    0.000033   0.167136  -0.069604  -0.028772   0.000003  -0.000952
     2  H    0.000012  -0.050064  -0.007218   0.000814  -0.000053   0.000007
     3  H    0.000106  -0.042066  -0.003296   0.005064  -0.000033   0.000020
     4  C   -0.084670   0.120340  -0.007538  -0.058917   0.009227  -0.009461
     5  H    0.006792   0.013841   0.000014   0.002009  -0.011644  -0.001292
     6  O    0.010005   0.006673   0.000116   0.005126  -0.002953   0.003417
     7  H   -0.001157  -0.000786   0.000073   0.000157   0.005139  -0.000961
     8  C    0.013237   0.017214  -0.043129  -0.030797   0.000784  -0.003265
     9  H    0.002532  -0.127611   0.010280   0.005354  -0.000646  -0.000161
    10  O    0.015463  -0.062434  -0.000114   0.008512  -0.000095  -0.000196
    11  H   -0.001104   0.002891   0.003144  -0.000016   0.000012   0.000010
    12  C    0.431231  -0.089137  -0.000000   0.251340   0.224739  -0.093702
    13  H    0.502455  -0.010485   0.005926  -0.030121  -0.048675   0.012912
    14  C   -0.010485   5.422263   0.418481   0.187186   0.012034  -0.000399
    15  H    0.005926   0.418481   0.602592  -0.036920  -0.001020   0.000364
    16  O   -0.030121   0.187186  -0.036920   8.067762  -0.075954   0.017551
    17  N   -0.048675   0.012034  -0.001020  -0.075954   6.376363   0.320935
    18  C    0.012912  -0.000399   0.000364   0.017551   0.320935   5.085553
    19  H    0.001033  -0.002024   0.000094   0.006682  -0.043039   0.414955
    20  C    0.000863   0.000475   0.000011  -0.001368  -0.038842   0.417439
    21  H    0.000011  -0.000002  -0.000000  -0.000069   0.004117  -0.033222
    22  C   -0.000523  -0.000031  -0.000000   0.000980  -0.051124   0.015136
    23  H   -0.000017  -0.000000  -0.000000   0.000000  -0.001866   0.005340
    24  H   -0.000009  -0.000000  -0.000000   0.000019   0.014982   0.008693
    25  C    0.009935   0.000220   0.000031  -0.002631  -0.011713   0.019762
    26  C   -0.020256   0.000303  -0.000452   0.003088   0.331852  -0.164767
    27  H   -0.001121   0.000027  -0.000018   0.000631  -0.032774   0.008019
    28  C    0.000220  -0.000004   0.000000  -0.000023   0.005494   0.001811
    29  O   -0.000054  -0.000000   0.000000  -0.000001  -0.000086   0.000460
    30  N   -0.000001   0.000000  -0.000000  -0.000000  -0.000347   0.000175
    31  H    0.000000  -0.000000   0.000000   0.000000   0.000016  -0.000008
    32  H    0.000000  -0.000000  -0.000000  -0.000000   0.000027   0.000177
    33  C   -0.000366  -0.000065   0.000000   0.000001   0.000182  -0.000087
    34  C    0.000319   0.000036  -0.000000   0.000037  -0.002371   0.003127
    35  C   -0.000408  -0.000008  -0.000000  -0.000045  -0.020559   0.001511
    36  C    0.000000  -0.000000  -0.000000  -0.000000  -0.000274   0.000480
    37  C    0.000031  -0.000002   0.000000   0.000001  -0.001542   0.002957
    38  O   -0.000231   0.000030  -0.000000   0.000014   0.006483   0.005656
    39  S    0.001815   0.000027   0.000000   0.000008   0.000964  -0.000108
[...]
      3        1           0.000744292   -0.004229911    0.000863670
      4        6           0.002706953   -0.003994681   -0.001022009
      5        1           0.004808603    0.005104164   -0.000259310
      6        8           0.001154569   -0.006207711   -0.012432024
      7        1          -0.007162020    0.004214590    0.003361959
      8        6          -0.011934785   -0.005441750   -0.006508593
      9        1           0.000604634    0.005640535   -0.002674924
     10        8           0.006667002   -0.001364229   -0.001274822
     11        1          -0.001644814    0.001682234    0.000485588
     12        6           0.007067295   -0.003994658    0.006345258
     13        1          -0.004301851   -0.000263564   -0.003314432
     14        6           0.001897177    0.000781440    0.007905942
     15        1          -0.002943768    0.002285792    0.001372931
     16        8          -0.005340841    0.002439179    0.006757289
     17        7           0.013858950    0.002141493    0.003204508
     18        6          -0.005227148   -0.003755254    0.000043667
     19        1           0.004650401    0.000451553    0.001510135
     20        6          -0.001210753   -0.008914309    0.004125669
     21        1           0.000179038   -0.002915307   -0.000212560
     22        6          -0.000744357    0.009412128   -0.006701660
     23        1          -0.001847826    0.001334389   -0.001201457
     24        1          -0.003266585    0.004646962    0.007632967
     25        6          -0.012037479    0.005269154   -0.003094809
     26        6           0.000696626    0.001541070    0.004043322
     27        1           0.002971747   -0.000809455    0.002065439
     28        6          -0.016738662   -0.006404097   -0.002566865
     29        8           0.003241273    0.002888648   -0.003777064
     30        7           0.025595746   -0.001828920   -0.003749514
     31        1          -0.002799589   -0.005301177    0.008330020
     32        1          -0.002663874    0.006396653    0.006707301
     33        6          -0.002169683   -0.011115270   -0.000946201
     34        6           0.003157584   -0.031057092    0.016058108
     35        6          -0.012495859    0.001066657   -0.021719875
     36        6          -0.002460318    0.000857355   -0.002158138
     37        6           0.007750483   -0.008947682    0.008437301
     38        8           0.001936451    0.012403659   -0.010405544
     39       16           0.014339203    0.014777778    0.007883183
     40        1           0.001725687    0.000420599    0.000731889
     41        1           0.001164298    0.001256487    0.003708871
     42        1          -0.003734711    0.000377333   -0.003206695
     43        1           0.000039105    0.003057294   -0.001953956
     44        1          -0.001098341    0.002705454   -0.000103174
     45        1           0.003780712   -0.003408269   -0.004207176
     46        1          -0.000487309    0.003654205   -0.000577432
     47        1           0.000644195   -0.001868983   -0.000438710
     48        1          -0.002781313    0.004506127   -0.004894557
 -------------------------------------------------------------------
 Cartesian Forces:  Max     0.031057092 RMS     0.006682138
 Leave Link  716 at Sun Apr  9 10:48:34 2023, MaxMem=  2684354560 cpu:               0.8 elap:               0.1
 (Enter /opt/gaussian/g16/l103.exe)

 GradGradGradGradGradGradGradGradGradGradGradGradGradGradGradGradGradGrad
 Berny optimization.
 Search for a local minimum.
 Step number   1 out of a maximum of    2
 All quantities printed in internal units (Hartrees-Bohrs-Radians)
 Second derivative matrix not updated -- first step.
 ITU=  0
     Eigenvalues ---    0.00046   0.00101   0.00112   0.00137   0.00173
     Eigenvalues ---    0.00308   0.00352   0.00398   0.00481   0.00539
     Eigenvalues ---    0.00635   0.00703   0.00802   0.00986   0.01031
     Eigenvalues ---    0.01094   0.01199   0.01378   0.01402   0.01564
     Eigenvalues ---    0.01728   0.02010   0.02351   0.02464   0.02589
     Eigenvalues ---    0.03058   0.03223   0.03663   0.04004   0.04215
     Eigenvalues ---    0.04437   0.04615   0.04787   0.04988   0.05078
     Eigenvalues ---    0.05150   0.05439   0.05484   0.05769   0.06018
     Eigenvalues ---    0.06093   0.06288   0.06693   0.06990   0.07089
     Eigenvalues ---    0.07165   0.07538   0.07723   0.08132   0.08359
     Eigenvalues ---    0.08441   0.08749   0.09370   0.09743   0.09915
     Eigenvalues ---    0.10925   0.11265   0.11509   0.11920   0.12095
     Eigenvalues ---    0.13019   0.13114   0.13515   0.13687   0.13910
     Eigenvalues ---    0.14148   0.14400   0.15301   0.15690   0.15859
     Eigenvalues ---    0.16623   0.17546   0.17743   0.18744   0.19415
     Eigenvalues ---    0.20612   0.21065   0.21921   0.22356   0.26377
     Eigenvalues ---    0.26554   0.27772   0.28916   0.29197   0.32667
     Eigenvalues ---    0.33219   0.33672   0.35015   0.36968   0.37483
     Eigenvalues ---    0.37483   0.37483   0.37483   0.37483   0.42052
     Eigenvalues ---    0.44128   0.47384   0.48671   0.54240   0.58839
     Eigenvalues ---    0.60674   0.60907   0.67243   0.71672   0.73294
     Eigenvalues ---    0.77619   0.79362   0.83607   0.87741   0.89645
     Eigenvalues ---    0.90339   0.91959   0.92975   0.94387   0.95225
     Eigenvalues ---    0.96996   0.97623   0.98983   1.02364   1.02993
     Eigenvalues ---    1.05667   1.07438   1.08328   1.09416   1.11771
     Eigenvalues ---    1.14045   1.17929   1.21880   1.28459   1.30828
     Eigenvalues ---    1.34104   1.34462   1.35620   1.55546   1.73541
     Eigenvalues ---    1.76454   1.92105   2.37737
 Quadratic step=3.490D+00 exceeds max=3.000D-01 adjusted using Lamda=-3.357D-02.
 Angle between NR and scaled steps=  61.69 degrees.
 Angle between quadratic step and forces=  57.04 degrees.
 Linear search not attempted -- first point.
 Variable       Old X    -DE/DX   Delta X   Delta X   Delta X     New X
                                 (Linear)    (Quad)   (Total)
    X1        6.55758  -0.00601   0.00000  -0.02383  -0.02383   6.53375
    Y1       -6.88662   0.01420   0.00000   0.03124   0.03124  -6.85538
    Z1       -1.32437  -0.00095   0.00000  -0.00540  -0.00540  -1.32977
    X2        6.72471  -0.00028   0.00000  -0.02002  -0.02002   6.70469
    Y2       -7.19524  -0.00369   0.00000  -0.01221  -0.01221  -7.20744
    Z2       -3.34744  -0.00122   0.00000  -0.00394  -0.00394  -3.35138
    X3        8.25729   0.00074   0.00000  -0.02963  -0.02963   8.22766
    Y3       -7.55485  -0.00423   0.00000  -0.01969  -0.01969  -7.57454
    Z3       -0.38719   0.00086   0.00000  -0.01014  -0.01014  -0.39733
    X4        3.05437   0.00271   0.00000  -0.00011  -0.00011   3.05427
    Y4       -2.35443  -0.00399   0.00000   0.00127   0.00127  -2.35316
    Z4        1.85463  -0.00102   0.00000  -0.01838  -0.01838   1.83625
    X5        1.76865   0.00481   0.00000   0.02495   0.02495   1.79360
    Y5       -4.00871   0.00510   0.00000   0.00699   0.00699  -4.00172
    Z5        1.79686  -0.00026   0.00000  -0.02579  -0.02579   1.77106
    X6        2.54024   0.00115   0.00000  -0.03750  -0.03750   2.50274
    Y6       -0.77273  -0.00621   0.00000   0.00433   0.00433  -0.76840
    Z6        3.88336  -0.01243   0.00000  -0.04910  -0.04910   3.83426
    X7        0.79409  -0.00716   0.00000  -0.04669  -0.04669   0.74740
    Y7       -0.18223   0.00421   0.00000   0.01880   0.01880  -0.16342
    Z7        3.79357   0.00336   0.00000   0.00077   0.00077   3.79433
    X8        5.81157  -0.01193   0.00000  -0.01911  -0.01911   5.79246
    Y8       -3.33052  -0.00544   0.00000   0.01056   0.01056  -3.31997
    Z8        1.96323  -0.00651   0.00000  -0.01505  -0.01505   1.94818
    X9        5.96282   0.00060   0.00000  -0.00061  -0.00061   5.96221
    Y9       -4.99887   0.00564   0.00000   0.02972   0.02972  -4.96915
    Z9        3.20482  -0.00267   0.00000  -0.01596  -0.01596   3.18886
   X10        7.29163   0.00667   0.00000   0.01768   0.01768   7.30931
   Y10       -1.31205  -0.00136   0.00000  -0.00074  -0.00074  -1.31278
   Z10        2.82359  -0.00127   0.00000  -0.03072  -0.03072   2.79288
   X11        9.02636  -0.00164   0.00000   0.01166   0.01166   9.03802
   Y11       -1.86020   0.00168   0.00000  -0.00642  -0.00642  -1.86661
   Z11        2.90509   0.00049   0.00000  -0.01619  -0.01619   2.88891
   X12        3.10921   0.00707   0.00000   0.00954   0.00954   3.11875
   Y12       -1.12180  -0.00399   0.00000   0.00713   0.00713  -1.11467
   Z12       -0.80956   0.00635   0.00000   0.01599   0.01599  -0.79357
   X13        4.22862  -0.00430   0.00000  -0.01045  -0.01045   4.21817
   Y13        0.61758  -0.00026   0.00000   0.01386   0.01386   0.63144
   Z13       -0.63481  -0.00331   0.00000  -0.02612  -0.02612  -0.66092
   X14        6.35504   0.00190   0.00000  -0.01409  -0.01409   6.34095
   Y14       -4.05458   0.00078   0.00000   0.01859   0.01859  -4.03599
   Z14       -0.85102   0.00791   0.00000   0.01409   0.01409  -0.83693
   X15        8.14959  -0.00294   0.00000  -0.02990  -0.02990   8.11969
   Y15       -3.18078   0.00229   0.00000   0.04060   0.04060  -3.14017
   Z15       -1.42199   0.00137   0.00000   0.01234   0.01234  -1.40965
   X16        4.35989  -0.00534   0.00000  -0.02926  -0.02926   4.33062
   Y16       -2.94764   0.00244   0.00000  -0.00063  -0.00063  -2.94827
   Z16       -2.33430   0.00676   0.00000   0.02819   0.02819  -2.30611
   X17        0.67425   0.01386   0.00000   0.01353   0.01353   0.68778
   Y17       -0.47725   0.00214   0.00000   0.00747   0.00747  -0.46978
   Z17       -1.94159   0.00320   0.00000   0.02606   0.02606  -1.91553
   X18       -1.23223  -0.00523   0.00000   0.00899   0.00899  -1.22325
   Y18       -2.21594  -0.00376   0.00000  -0.00505  -0.00505  -2.22099
   Z18       -2.00957   0.00004   0.00000   0.01888   0.01888  -1.99068
   X19       -0.85650   0.00465   0.00000   0.05905   0.05905  -0.79745
   Y19       -4.08071   0.00045   0.00000   0.00337   0.00337  -4.07734
   Z19       -1.28625   0.00151   0.00000   0.01951   0.01951  -1.26674
   X20       -3.51629  -0.00121   0.00000  -0.00213  -0.00213  -3.51842
   Y20       -1.61069  -0.00891   0.00000  -0.02640  -0.02640  -1.63709
   Z20       -2.96839   0.00413   0.00000   0.01151   0.01151  -2.95688
   X21       -5.02427   0.00018   0.00000   0.01794   0.01794  -5.00633
   Y21       -2.97815  -0.00292   0.00000  -0.05238  -0.05238  -3.03053
   Z21       -2.92725  -0.00021   0.00000  -0.00220  -0.00220  -2.92945
   X22       -3.97667  -0.00074   0.00000  -0.02188  -0.02188  -3.99855
   Y22        0.83417   0.00941   0.00000  -0.00861  -0.00861   0.82556
   Z22       -3.88319  -0.00670   0.00000  -0.00863  -0.00863  -3.89182
   X23       -5.71801  -0.00185   0.00000  -0.01519  -0.01519  -5.73320
   Y23        1.22566   0.00133   0.00000  -0.00440  -0.00440   1.22126
   Z23       -4.86474  -0.00120   0.00000  -0.02594  -0.02594  -4.89068
   X24       -5.14858  -0.00327   0.00000  -0.01706  -0.01706  -5.16565
   Y24        2.38171   0.00465   0.00000   0.00777   0.00777   2.38949
   Z24       -1.35283   0.00763   0.00000   0.03350   0.03350  -1.31933
   X25       -1.87222  -0.01204   0.00000  -0.03393  -0.03393  -1.90615
   Y25        2.46570   0.00527   0.00000   0.00959   0.00959   2.47529
   Z25       -4.16063  -0.00309   0.00000   0.03482   0.03482  -4.12581
   X26        0.35340   0.00070   0.00000  -0.01750  -0.01750   0.33591
   Y26        1.81557   0.00154   0.00000   0.01432   0.01432   1.82989
   Z26       -3.05528   0.00404   0.00000   0.04289   0.04289  -3.01239
   X27        1.92497   0.00297   0.00000   0.00367   0.00367   1.92864
   Y27        3.11514  -0.00081   0.00000  -0.00261  -0.00261   3.11253
   Z27       -3.07541   0.00207   0.00000   0.04197   0.04197  -3.03344
   X28       -2.18054  -0.01674   0.00000  -0.01197  -0.01197  -2.19251
   Y28        5.02236  -0.00640   0.00000  -0.00907  -0.00907   5.01329
   Z28       -5.38465  -0.00257   0.00000   0.02675   0.02675  -5.35790
   X29       -0.92291   0.00324   0.00000   0.02801   0.02801  -0.89490
   Y29        6.81687   0.00289   0.00000  -0.01213  -0.01213   6.80474
   Z29       -4.80069  -0.00378   0.00000  -0.04043  -0.04043  -4.84111
   X30       -4.22442   0.02560   0.00000   0.07713   0.07713  -4.14729
   Y30        5.15735  -0.00183   0.00000  -0.01553  -0.01553   5.14182
   Z30       -7.11764  -0.00375   0.00000  -0.01004  -0.01004  -7.12768
   X31       -4.06268  -0.00280   0.00000   0.02675   0.02675  -4.03593
   Y31        6.72620  -0.00530   0.00000  -0.00523  -0.00523   6.72097
   Z31       -8.23844   0.00833   0.00000   0.03111   0.03111  -8.20734
   X32       -4.38621  -0.00266   0.00000   0.00304   0.00304  -4.38318
   Y32        3.56796   0.00640   0.00000  -0.00730  -0.00730   3.56066
   Z32       -8.20531   0.00671   0.00000   0.02276   0.02276  -8.18255
   X33        1.23895  -0.00217   0.00000  -0.01255  -0.01255   1.22640
   Y33        4.05209  -0.01112   0.00000  -0.02756  -0.02756   4.02453
   Z33        7.21002  -0.00095   0.00000   0.01835   0.01835   7.22837
   X34       -2.07080   0.00316   0.00000   0.03210   0.03210  -2.03870
   Y34        3.82828  -0.03106   0.00000  -0.01789  -0.01789   3.81039
   Z34        3.20202   0.01606   0.00000  -0.01400  -0.01400   3.18802
   X35       -3.44821  -0.01250   0.00000   0.00056   0.00056  -3.44765
   Y35        4.98178   0.00107   0.00000  -0.00796  -0.00796   4.97383
   Z35        1.31414  -0.02172   0.00000  -0.03577  -0.03577   1.27837
   X36       -7.37149  -0.00246   0.00000  -0.01962  -0.01962  -7.39110
   Y36        5.81786   0.00086   0.00000   0.00292   0.00292   5.82078
   Z36       -1.17355  -0.00216   0.00000  -0.00435  -0.00435  -1.17789
   X37       -5.70723   0.00775   0.00000  -0.00332  -0.00332  -5.71055
   Y37        3.92224  -0.00895   0.00000  -0.01444  -0.01444   3.90780
   Z37        0.17188   0.00844   0.00000   0.01310   0.01310   0.18498
   X38       -2.24189   0.00194   0.00000   0.04879   0.04879  -2.19311
   Y38        1.58002   0.01240   0.00000  -0.02048  -0.02048   1.55954
   Z38        3.98639  -0.01041   0.00000  -0.07585  -0.07585   3.91054
   X39        0.07381   0.01434   0.00000   0.03017   0.03017   0.10399
   Y39        5.93279   0.01478   0.00000   0.02500   0.02500   5.95778
   Z39        4.63471   0.00788   0.00000   0.03936   0.03936   4.67407
   X40       -0.37773   0.00173   0.00000  -0.00468  -0.00468  -0.38241
   Y40        3.29647   0.00042   0.00000  -0.01862  -0.01862   3.27785
   Z40        8.23844   0.00073   0.00000   0.02811   0.02811   8.26655
   X41        2.32743   0.00116   0.00000   0.02908   0.02908   2.35651
   Y41        2.48460   0.00126   0.00000  -0.01065  -0.01065   2.47395
   Z41        6.44351   0.00371   0.00000   0.05866   0.05866   6.50217
   X42       -8.00313  -0.00373   0.00000  -0.05373  -0.05373  -8.05686
   Y42        5.08436   0.00038   0.00000   0.01417   0.01417   5.09852
   Z42       -2.98247  -0.00321   0.00000  -0.00637  -0.00637  -2.98885
   X43       -6.33744   0.00004   0.00000  -0.01191  -0.01191  -6.34935
   Y43        7.55485   0.00306   0.00000   0.00477   0.00477   7.55962
   Z43       -1.52514  -0.00195   0.00000  -0.02777  -0.02777  -1.55291
   X44       -9.02636  -0.00110   0.00000  -0.00699  -0.00699  -9.03335
   Y44        6.24999   0.00271   0.00000   0.04521   0.04521   6.29520
   Z44       -0.03408  -0.00010   0.00000   0.00199   0.00199  -0.03209
   X45       -6.78179   0.00378   0.00000   0.03316   0.03316  -6.74863
   Y45        2.80448  -0.00341   0.00000  -0.05386  -0.05386   2.75062
   Z45        1.55084  -0.00421   0.00000  -0.00548  -0.00548   1.54536
   X46       -2.82538  -0.00049   0.00000  -0.02912  -0.02912  -2.85450
   Y46        6.82574   0.00365   0.00000   0.01883   0.01883   6.84457
   Z46        0.70486  -0.00058   0.00000  -0.01412  -0.01412   0.69074
   X47        4.89848   0.00064   0.00000  -0.01115  -0.01115   4.88733
   Y47       -7.86494  -0.00187   0.00000   0.00546   0.00546  -7.85948
   Z47       -0.59425  -0.00044   0.00000  -0.01072  -0.01072  -0.60497
   X48        2.43241  -0.00278   0.00000  -0.04553  -0.04553   2.38689
   Y48        5.14746   0.00451   0.00000   0.04131   0.04131   5.18876
   Z48        8.48226  -0.00489   0.00000  -0.01711  -0.01711   8.46515
         Item               Value     Threshold  Converged?
 Maximum Force            0.031057     0.000450     NO 
 RMS     Force            0.006682     0.000300     NO 
 Maximum Displacement     0.077132     0.001800     NO 
 RMS     Displacement     0.025070     0.001200     NO 
 Predicted change in Energy=-8.081838D-03
 GradGradGradGradGradGradGradGradGradGradGradGradGradGradGradGradGradGrad

 Leave Link  103 at Sun Apr  9 10:48:34 2023, MaxMem=  2684354560 cpu:               1.8 elap:               0.1
 (Enter /opt/gaussian/g16/l9999.exe)

 Test job not archived.
 1\1\GINC-JULIO-SYS\Force\RM062X\def2TZVP\C16H24N2O5S1\JVELAZQUEZ\09-Ap
 r-2023\0\\#P M062X/Def2TZVP scf=(direct,conver=8) EmpiricalDispersion=
 GD3 NoSymm Force pop=(NBORead) Charge Prop=(Field,Read)\\Gaussian run 
 using SANDER external interface, route from template gau_job.tpl\\0,1\
 C,3.4701200284,-3.6442415011,-0.7008281545\H,3.5585645506,-3.807555170
 8,-1.7713891005\H,4.3695712012,-3.9978547243,-0.2048925108\C,1.6163037
 401,-1.2459128165,0.9814287384\H,0.9359312485,-2.1213159955,0.95085512
 27\O,1.3442366311,-0.408910064,2.0549871365\H,0.4202138949,-0.09643046
 61,2.0074684525\C,3.0753509391,-1.7624377419,1.0388984305\H,3.15538835
 23,-2.6452906104,1.6959165725\O,3.8585655751,-0.6943053466,1.494181984
 \H,4.7765438915,-0.9843732103,1.5373091051\C,1.645321331,-0.5936311312
 ,-0.4284032789\H,2.2376889004,0.3268096323,-0.3359252217\C,3.362940596
 9,-2.1455900613,-0.4503417578\H,4.3125771677,-1.6831959234,-0.75248217
 09\O,2.3071527665,-1.5598251432,-1.2352571816\N,0.3567964349,-0.252552
 2886,-1.0274452547\C,-0.6520691913,-1.1726261084,-1.0634173836\H,-0.45
 32378962,-2.1594193463,-0.6806530879\C,-1.8607400086,-0.852340027,-1.5
 708026596\H,-2.6587289451,-1.5759688389,-1.5490338629\C,-2.1043655646,
 0.4414232475,-2.0548945761\H,-3.0258418118,0.6485937194,-2.5743084079\
 H,-2.7245136752,1.2603487071,-0.715884826\C,-0.9907347746,1.3047921178
 ,-2.2017086659\C,0.1870136898,0.9607600709,-1.616783747\H,1.0186490208
 ,1.6484637233,-1.6274351172\C,-1.1538925957,2.6577184006,-2.8494354114
 \O,-0.4883835374,3.6073307586,-2.5404143497\N,-2.2354679687,2.72915205
 75,-3.766494256\H,-2.1498758563,3.5593505239,-4.3595969434\H,-2.321083
 6898,1.888084004,-4.3420618631\C,0.6556251377,2.1442712303,3.815378494
 9\C,-1.0958191704,2.0258389649,1.6944351271\C,-1.8247153402,2.63624631
 83,0.6954116799\C,-3.9008233883,3.0786784699,-0.6210144785\C,-3.020137
 5663,2.075562259,0.0909544803\O,-1.1863582128,0.8361114694,2.109507023
 2\S,0.0390602715,3.1394947802,2.4525817391\H,-0.199886061,1.7444182667
 ,4.3595969434\H,1.2316246501,1.3147946295,3.409757746\H,-4.2350762145,
 2.690526184,-1.5782560222\H,-3.3536272303,3.9978547243,-0.8070716467\H
 ,-4.7765438915,3.3073545928,-0.0180347303\H,-3.5887705162,1.4840669239
 ,0.8206713223\H,-1.4951260552,3.6120280129,0.3729970298\H,2.5921654327
 ,-4.161946961,-0.3144646151\H,1.2871780699,2.7239159152,4.4886191155\\
 Version=ES64L-G16RevA.03\HF=-1507.8489551\RMSD=8.248e-09\RMSF=6.682e-0
 3\Dipole=0.6322646,-2.6104576,-2.5897131\Quadrupole=10.7825333,-10.630
 7041,-0.1518291,-5.9815153,11.5296868,-7.1173861\PG=C01 [X(C16H24N2O5S
 1)]\\@


 REALITY IS FOR PEOPLE WHO CAN'T FACE SCIENCE FICTION.
 Job cpu time:       0 days  7 hours 13 minutes 16.3 seconds.
 Elapsed time:       0 days  0 hours 27 minutes  5.5 seconds.
 File lengths (MBytes):  RWF=    435 Int=      0 D2E=      0 Chk=     48 Scr=      1
 Normal termination of Gaussian 16 at Sun Apr  9 10:48:34 2023.
