 Entering Gaussian System, Link 0=g16
 Initial command:
 /opt/gaussian/g16/l1.exe "/opt/gaussian/scratch16/Gau-3408114.inp" -scrdir="/opt/gaussian/scratch16/"
 Entering Link 1 = /opt/gaussian/g16/l1.exe PID=   3408116.
  
 Copyright (c) 1988,1990,1992,1993,1995,1998,2003,2009,2016,
            Gaussian, Inc.  All Rights Reserved.
  
 This is part of the Gaussian(R) 16 program.  It is based on
 the Gaussian(R) 09 system (copyright 2009, Gaussian, Inc.),
 the Gaussian(R) 03 system (copyright 2003, Gaussian, Inc.),
 the Gaussian(R) 98 system (copyright 1998, Gaussian, Inc.),
 the Gaussian(R) 94 system (copyright 1995, Gaussian, Inc.),
 the Gaussian 92(TM) system (copyright 1992, Gaussian, Inc.),
 the Gaussian 90(TM) system (copyright 1990, Gaussian, Inc.),
 the Gaussian 88(TM) system (copyright 1988, Gaussian, Inc.),
 the Gaussian 86(TM) system (copyright 1986, Carnegie Mellon
 University), and the Gaussian 82(TM) system (copyright 1983,
 Carnegie Mellon University). Gaussian is a federally registered
 trademark of Gaussian, Inc.
  
 This software contains proprietary and confidential information,
 including trade secrets, belonging to Gaussian, Inc.
  
 This software is provided under written license and may be
 used, copied, transmitted, or stored only in accord with that
 written license.
  
 The following legend is applicable only to US Government
 contracts under FAR:
  
                    RESTRICTED RIGHTS LEGEND
  
 Use, reproduction and disclosure by the US Government is
 subject to restrictions as set forth in subparagraphs (a)
 and (c) of the Commercial Computer Software - Restricted
 Rights clause in FAR 52.227-19.
  
 Gaussian, Inc.
 340 Quinnipiac St., Bldg. 40, Wallingford CT 06492
  
  
 ---------------------------------------------------------------
 Warning -- This program may not be used in any manner that
 competes with the business of Gaussian, Inc. or will provide
 assistance to any competitor of Gaussian, Inc.  The licensee
 of this program is prohibited from giving any competitor of
 Gaussian, Inc. access to this program.  By using this program,
 the user acknowledges that Gaussian, Inc. is engaged in the
 business of creating and licensing software in the field of
 computational chemistry and represents and warrants to the
 licensee that it is not a competitor of Gaussian, Inc. and that
 it will not use this program in any manner prohibited above.
 ---------------------------------------------------------------
  

 Cite this work as:
 Gaussian 16, Revision A.03,
 M. J. Frisch, G. W. Trucks, H. B. Schlegel, G. E. Scuseria, 
 M. A. Robb, J. R. Cheeseman, G. Scalmani, V. Barone, 
 G. A. Petersson, H. Nakatsuji, X. Li, M. Caricato, A. V. Marenich, 
 J. Bloino, B. G. Janesko, R. Gomperts, B. Mennucci, H. P. Hratchian, 
 J. V. Ortiz, A. F. Izmaylov, J. L. Sonnenberg, D. Williams-Young, 
 F. Ding, F. Lipparini, F. Egidi, J. Goings, B. Peng, A. Petrone, 
 T. Henderson, D. Ranasinghe, V. G. Zakrzewski, J. Gao, N. Rega, 
 G. Zheng, W. Liang, M. Hada, M. Ehara, K. Toyota, R. Fukuda, 
 J. Hasegawa, M. Ishida, T. Nakajima, Y. Honda, O. Kitao, H. Nakai, 
 T. Vreven, K. Throssell, J. A. Montgomery, Jr., J. E. Peralta, 
 F. Ogliaro, M. J. Bearpark, J. J. Heyd, E. N. Brothers, K. N. Kudin, 
 V. N. Staroverov, T. A. Keith, R. Kobayashi, J. Normand, 
 K. Raghavachari, A. P. Rendell, J. C. Burant, S. S. Iyengar, 
 J. Tomasi, M. Cossi, J. M. Millam, M. Klene, C. Adamo, R. Cammi, 
 J. W. Ochterski, R. L. Martin, K. Morokuma, O. Farkas, 
 J. B. Foresman, and D. J. Fox, Gaussian, Inc., Wallingford CT, 2016.
 
 ******************************************
 Gaussian 16:  ES64L-G16RevA.03 25-Dec-2016
                 9-Apr-2023 
 ******************************************
 %chk=25.chk
 %NProcShared=16
 Will use up to   16 processors via shared memory.
 %mem=20GB
 ----------------------------------------------------------------------
 #P M062X/Def2TZVP scf=(direct,conver=8) EmpiricalDispersion=GD3 NoSymm
  Force pop=(NBORead) Charge Prop=(Field,Read)
 ----------------------------------------------------------------------
 1/10=7,18=10,28=-2,30=1,38=1,125=101/1,3;
 2/12=2,15=1,17=6,18=5,29=2,40=1/2;
 3/5=44,7=101,11=2,25=1,30=1,71=1,74=-55,124=31/1,2,3;
 4//1;
 5/5=2,6=8,38=5/2;
 6/7=2,8=2,9=2,10=2,14=2,15=1,28=1,40=2/1,2,7;
 7/7=1,16=-2,29=1,30=1/1,2,3,16;
 1/10=7,18=10,28=-2,30=1/3;
 99/12=1/99;
 Leave Link    1 at Sun Apr  9 10:47:16 2023, MaxMem=  2684354560 cpu:               1.0 elap:               0.1
 (Enter /opt/gaussian/g16/l101.exe)
 ----------------------------------------------------------------------
 Gaussian run using SANDER external interface, route from template gau_
 job.tpl
 ----------------------------------------------------------------------
 Symbolic Z-matrix:
 Charge =  0 Multiplicity = 1
 C                     3.46776  -3.64197  -0.70235 
 H                     3.55611  -3.80467  -1.773 
 H                     4.36724  -3.99572  -0.20679 
 C                     1.61426  -1.24247   0.9792 
 H                     0.93308  -2.11773   0.94978 
 O                     1.34402  -0.40417   2.0514 
 H                     0.41996  -0.08861   2.00596 
 C                     3.07312  -1.75982   1.03703 
 H                     3.15208  -2.64203   1.69484 
 O                     3.85647  -0.69162   1.49178 
 H                     4.77404  -0.98247   1.53752 
 C                     1.64422  -0.59064  -0.43113 
 H                     2.23513   0.33067  -0.33911 
 C                     3.36113  -2.14354  -0.45172 
 H                     4.31073  -1.68114  -0.75341 
 O                     2.30623  -1.55744  -1.23769 
 N                     0.35526  -0.25148  -1.03043 
 C                    -0.65005  -1.17225  -1.06434 
 H                    -0.45406  -2.15657  -0.67476 
 C                    -1.85531  -0.85777  -1.58794 
 H                    -2.65363  -1.58039  -1.56305 
 C                    -2.09126   0.42085  -2.09793 
 H                    -3.0239    0.63914  -2.59161 
 H                    -2.73922   1.27508  -0.69987 
 C                    -0.99416   1.30134  -2.20927 
 C                     0.18143   0.96208  -1.61248 
 H                     1.00851   1.65447  -1.62113 
 C                    -1.15815   2.65689  -2.85228 
 O                    -0.4921    3.60537  -2.5381 
 N                    -2.23688   2.73207  -3.77124 
 H                    -2.15247   3.56567  -4.35977 
 H                    -2.32468   1.89412  -4.35119 
 C                     0.65576   2.14404   3.81599 
 C                    -1.09421   2.02448   1.68773 
 C                    -1.82494   2.63465   0.6984 
 C                    -3.9061    3.08349  -0.61318 
 C                    -3.0288    2.07147   0.09059 
 O                    -1.17761   0.83043   2.09916 
 S                     0.04301   3.13943   2.45147 
 H                    -0.20074   1.74532   4.35977 
 H                     1.23135   1.31323   3.41248 
 H                    -4.24785   2.69846  -1.56824 
 H                    -3.35112   3.99572  -0.80322 
 H                    -4.77404   3.32427  -0.00494 
 H                    -3.602     1.50279   0.83671 
 H                    -1.50977   3.6197    0.39194 
 H                     2.58993  -4.15977  -0.31582 
 H                     1.28692   2.72443   4.48895 
 
 ITRead=  0  0  0  0  0  0  0  0  0  0  0  0  0  0  0  0  0  0  0  0
 ITRead=  0  0  0  0  0  0  0  0  0  0  0  0  0  0  0  0  0  0  0  0
 ITRead=  0  0  0  0  0  0  0  0
 MicOpt= -1 -1 -1 -1 -1 -1 -1 -1 -1 -1 -1 -1 -1 -1 -1 -1 -1 -1 -1 -1
 MicOpt= -1 -1 -1 -1 -1 -1 -1 -1 -1 -1 -1 -1 -1 -1 -1 -1 -1 -1 -1 -1
 MicOpt= -1 -1 -1 -1 -1 -1 -1 -1
 NAtoms=     48 NQM=       48 NQMF=       0 NMMI=      0 NMMIF=      0
                NMic=       0 NMicF=      0.
                    Isotopes and Nuclear Properties:
 (Nuclear quadrupole moments (NQMom) in fm**2, nuclear magnetic moments (NMagM)
  in nuclear magnetons)

  Atom         1           2           3           4           5           6           7           8           9          10
 IAtWgt=          12           1           1          12           1          16           1          12           1          16
 AtmWgt=  12.0000000   1.0078250   1.0078250  12.0000000   1.0078250  15.9949146   1.0078250  12.0000000   1.0078250  15.9949146
 NucSpn=           0           1           1           0           1           0           1           0           1           0
 AtZEff=  -0.0000000  -0.0000000  -0.0000000  -0.0000000  -0.0000000  -0.0000000  -0.0000000  -0.0000000  -0.0000000  -0.0000000
 NQMom=    0.0000000   0.0000000   0.0000000   0.0000000   0.0000000   0.0000000   0.0000000   0.0000000   0.0000000   0.0000000
 NMagM=    0.0000000   2.7928460   2.7928460   0.0000000   2.7928460   0.0000000   2.7928460   0.0000000   2.7928460   0.0000000
 AtZNuc=   6.0000000   1.0000000   1.0000000   6.0000000   1.0000000   8.0000000   1.0000000   6.0000000   1.0000000   8.0000000

  Atom        11          12          13          14          15          16          17          18          19          20
 IAtWgt=           1          12           1          12           1          16          14          12           1          12
 AtmWgt=   1.0078250  12.0000000   1.0078250  12.0000000   1.0078250  15.9949146  14.0030740  12.0000000   1.0078250  12.0000000
 NucSpn=           1           0           1           0           1           0           2           0           1           0
 AtZEff=  -0.0000000  -0.0000000  -0.0000000  -0.0000000  -0.0000000  -0.0000000  -0.0000000  -0.0000000  -0.0000000  -0.0000000
 NQMom=    0.0000000   0.0000000   0.0000000   0.0000000   0.0000000   0.0000000   2.0440000   0.0000000   0.0000000   0.0000000
 NMagM=    2.7928460   0.0000000   2.7928460   0.0000000   2.7928460   0.0000000   0.4037610   0.0000000   2.7928460   0.0000000
 AtZNuc=   1.0000000   6.0000000   1.0000000   6.0000000   1.0000000   8.0000000   7.0000000   6.0000000   1.0000000   6.0000000

  Atom        21          22          23          24          25          26          27          28          29          30
 IAtWgt=           1          12           1           1          12          12           1          12          16          14
 AtmWgt=   1.0078250  12.0000000   1.0078250   1.0078250  12.0000000  12.0000000   1.0078250  12.0000000  15.9949146  14.0030740
 NucSpn=           1           0           1           1           0           0           1           0           0           2
 AtZEff=  -0.0000000  -0.0000000  -0.0000000  -0.0000000  -0.0000000  -0.0000000  -0.0000000  -0.0000000  -0.0000000  -0.0000000
 NQMom=    0.0000000   0.0000000   0.0000000   0.0000000   0.0000000   0.0000000   0.0000000   0.0000000   0.0000000   2.0440000
 NMagM=    2.7928460   0.0000000   2.7928460   2.7928460   0.0000000   0.0000000   2.7928460   0.0000000   0.0000000   0.4037610
 AtZNuc=   1.0000000   6.0000000   1.0000000   1.0000000   6.0000000   6.0000000   1.0000000   6.0000000   8.0000000   7.0000000

  Atom        31          32          33          34          35          36          37          38          39          40
 IAtWgt=           1           1          12          12          12          12          12          16          32           1
 AtmWgt=   1.0078250   1.0078250  12.0000000  12.0000000  12.0000000  12.0000000  12.0000000  15.9949146  31.9720718   1.0078250
 NucSpn=           1           1           0           0           0           0           0           0           0           1
 AtZEff=  -0.0000000  -0.0000000  -0.0000000  -0.0000000  -0.0000000  -0.0000000  -0.0000000  -0.0000000  -0.0000000  -0.0000000
 NQMom=    0.0000000   0.0000000   0.0000000   0.0000000   0.0000000   0.0000000   0.0000000   0.0000000   0.0000000   0.0000000
 NMagM=    2.7928460   2.7928460   0.0000000   0.0000000   0.0000000   0.0000000   0.0000000   0.0000000   0.0000000   2.7928460
 AtZNuc=   1.0000000   1.0000000   6.0000000   6.0000000   6.0000000   6.0000000   6.0000000   8.0000000  16.0000000   1.0000000

  Atom        41          42          43          44          45          46          47          48
 IAtWgt=           1           1           1           1           1           1           1           1
 AtmWgt=   1.0078250   1.0078250   1.0078250   1.0078250   1.0078250   1.0078250   1.0078250   1.0078250
 NucSpn=           1           1           1           1           1           1           1           1
 AtZEff=  -0.0000000  -0.0000000  -0.0000000  -0.0000000  -0.0000000  -0.0000000  -0.0000000  -0.0000000
 NQMom=    0.0000000   0.0000000   0.0000000   0.0000000   0.0000000   0.0000000   0.0000000   0.0000000
 NMagM=    2.7928460   2.7928460   2.7928460   2.7928460   2.7928460   2.7928460   2.7928460   2.7928460
 AtZNuc=   1.0000000   1.0000000   1.0000000   1.0000000   1.0000000   1.0000000   1.0000000   1.0000000
 Background charge distribution read from input stream:
 Leave Link  101 at Sun Apr  9 10:47:16 2023, MaxMem=  2684354560 cpu:               4.0 elap:               0.3
 (Enter /opt/gaussian/g16/l103.exe)

 GradGradGradGradGradGradGradGradGradGradGradGradGradGradGradGradGradGrad
 Berny optimization.
 Initialization pass.
 Trust Radius=3.00D-01 FncErr=1.00D-07 GrdErr=1.00D-07 EigMax=2.50D+02 EigMin=1.00D-04
 Number of steps in this run=      2 maximum allowed number of steps=      2.
 GradGradGradGradGradGradGradGradGradGradGradGradGradGradGradGradGradGrad

 Leave Link  103 at Sun Apr  9 10:47:16 2023, MaxMem=  2684354560 cpu:               0.4 elap:               0.0
 (Enter /opt/gaussian/g16/l202.exe)
 ---------------------------------------------------------------------------------------------------
                            Z-MATRIX (ANGSTROMS AND DEGREES)
   CD    Cent   Atom    N1       Length/X        N2       Alpha/Y        N3        Beta/Z          J
 ---------------------------------------------------------------------------------------------------
      1      1  C        0   3.467757         -3.641971         -0.702350
      2      2  H        0   3.556113         -3.804669         -1.772998
      3      3  H        0   4.367237         -3.995723         -0.206795
      4      4  C        0   1.614255         -1.242470          0.979198
      5      5  H        0   0.933079         -2.117727          0.949775
      6      6  O        0   1.344016         -0.404173          2.051400
      7      7  H        0   0.419961         -0.088606          2.005956
      8      8  C        0   3.073125         -1.759824          1.037032
      9      9  H        0   3.152079         -2.642027          1.694841
     10     10  O        0   3.856474         -0.691615          1.491779
     11     11  H        0   4.774041         -0.982474          1.537525
     12     12  C        0   1.644217         -0.590640         -0.431134
     13     13  H        0   2.235129          0.330673         -0.339108
     14     14  C        0   3.361129         -2.143541         -0.451716
     15     15  H        0   4.310727         -1.681136         -0.753411
     16     16  O        0   2.306228         -1.557437         -1.237685
     17     17  N        0   0.355258         -0.251482         -1.030427
     18     18  C        0  -0.650048         -1.172245         -1.064342
     19     19  H        0  -0.454057         -2.156569         -0.674760
     20     20  C        0  -1.855315         -0.857767         -1.587936
     21     21  H        0  -2.653634         -1.580391         -1.563046
     22     22  C        0  -2.091263          0.420849         -2.097928
     23     23  H        0  -3.023905          0.639135         -2.591614
     24     24  H        0  -2.739217          1.275076         -0.699870
     25     25  C        0  -0.994162          1.301345         -2.209271
     26     26  C        0   0.181431          0.962082         -1.612479
     27     27  H        0   1.008506          1.654468         -1.621133
     28     28  C        0  -1.158153          2.656891         -2.852277
     29     29  O        0  -0.492100          3.605374         -2.538099
     30     30  N        0  -2.236883          2.732068         -3.771237
     31     31  H        0  -2.152474          3.565673         -4.359774
     32     32  H        0  -2.324676          1.894119         -4.351193
     33     33  C        0   0.655757          2.144036          3.815987
     34     34  C        0  -1.094210          2.024479          1.687731
     35     35  C        0  -1.824939          2.634650          0.698401
     36     36  C        0  -3.906104          3.083485         -0.613182
     37     37  C        0  -3.028802          2.071472          0.090588
     38     38  O        0  -1.177615          0.830432          2.099161
     39     39  S        0   0.043008          3.139428          2.451474
     40     40  H        0  -0.200744          1.745319          4.359774
     41     41  H        0   1.231351          1.313230          3.412480
     42     42  H        0  -4.247846          2.698464         -1.568237
     43     43  H        0  -3.351125          3.995723         -0.803217
     44     44  H        0  -4.774041          3.324268         -0.004943
     45     45  H        0  -3.601998          1.502792          0.836714
     46     46  H        0  -1.509775          3.619698          0.391938
     47     47  H        0   2.589931         -4.159774         -0.315824
     48     48  H        0   1.286917          2.724427          4.488953
 ---------------------------------------------------------------------------------------------------
                         Z-Matrix orientation:                         
 ---------------------------------------------------------------------
 Center     Atomic      Atomic             Coordinates (Angstroms)
 Number     Number       Type             X           Y           Z
 ---------------------------------------------------------------------
      1          6           0        3.467757   -3.641971   -0.702350
      2          1           0        3.556113   -3.804669   -1.772998
      3          1           0        4.367237   -3.995723   -0.206795
      4          6           0        1.614255   -1.242470    0.979198
      5          1           0        0.933079   -2.117727    0.949775
      6          8           0        1.344016   -0.404173    2.051400
      7          1           0        0.419961   -0.088606    2.005956
      8          6           0        3.073125   -1.759824    1.037032
      9          1           0        3.152079   -2.642027    1.694841
     10          8           0        3.856474   -0.691615    1.491779
     11          1           0        4.774041   -0.982474    1.537525
     12          6           0        1.644217   -0.590640   -0.431134
     13          1           0        2.235129    0.330673   -0.339108
     14          6           0        3.361129   -2.143541   -0.451716
     15          1           0        4.310727   -1.681136   -0.753411
     16          8           0        2.306228   -1.557437   -1.237685
     17          7           0        0.355258   -0.251482   -1.030427
     18          6           0       -0.650048   -1.172245   -1.064342
     19          1           0       -0.454057   -2.156569   -0.674760
     20          6           0       -1.855315   -0.857767   -1.587936
     21          1           0       -2.653634   -1.580391   -1.563046
     22          6           0       -2.091263    0.420849   -2.097928
     23          1           0       -3.023905    0.639135   -2.591614
     24          1           0       -2.739217    1.275076   -0.699870
     25          6           0       -0.994162    1.301345   -2.209271
     26          6           0        0.181431    0.962082   -1.612479
     27          1           0        1.008506    1.654468   -1.621133
     28          6           0       -1.158153    2.656891   -2.852277
     29          8           0       -0.492100    3.605374   -2.538099
     30          7           0       -2.236883    2.732068   -3.771237
     31          1           0       -2.152474    3.565673   -4.359774
     32          1           0       -2.324676    1.894119   -4.351193
     33          6           0        0.655757    2.144036    3.815987
     34          6           0       -1.094210    2.024479    1.687731
     35          6           0       -1.824939    2.634650    0.698401
     36          6           0       -3.906104    3.083485   -0.613182
     37          6           0       -3.028802    2.071472    0.090588
     38          8           0       -1.177615    0.830432    2.099161
     39         16           0        0.043008    3.139428    2.451474
     40          1           0       -0.200744    1.745319    4.359774
     41          1           0        1.231351    1.313230    3.412480
     42          1           0       -4.247846    2.698464   -1.568237
     43          1           0       -3.351125    3.995723   -0.803217
     44          1           0       -4.774041    3.324268   -0.004943
     45          1           0       -3.601998    1.502792    0.836714
     46          1           0       -1.509775    3.619698    0.391938
     47          1           0        2.589931   -4.159774   -0.315824
     48          1           0        1.286917    2.724427    4.488953
 ---------------------------------------------------------------------
                    Distance matrix (angstroms):
                    1          2          3          4          5
     1  C    0.000000
     2  H    1.086538   0.000000
     3  H    1.086177   1.774096   0.000000
     4  C    3.467084   4.232051   4.070121   0.000000
     5  H    3.387835   4.139997   4.081416   1.109478   0.000000
     6  O    4.751499   5.575192   5.209466   1.387583   2.078151
     7  H    5.408362   6.158333   5.978529   1.952427   2.344385
     8  C    2.593002   3.508694   2.867242   1.548967   2.171521
     9  H    2.616499   3.679795   2.631600   2.199046   2.398744
    10  O    3.697283   4.521071   3.750088   2.365106   3.297545
    11  H    3.714342   4.517487   3.505397   3.219250   4.048115
    12  C    3.565035   3.973151   4.365748   1.553968   2.178215
    13  H    4.175310   4.571880   4.825048   2.144341   3.057976
    14  C    1.522983   2.131466   2.121984   2.431257   2.803617
    15  H    2.134965   2.473538   2.378927   3.235015   3.807881
    16  O    2.445611   2.626561   3.354956   2.343630   2.642810
    17  N    4.614184   4.839631   5.549206   2.570161   2.781717
    18  C    4.815278   5.012349   5.820701   3.050912   2.730732
    19  H    4.193782   4.472564   5.181347   2.801619   2.136533
    20  C    6.072161   6.164579   7.104538   4.333139   3.975251
    21  H    6.516312   6.599428   7.547574   4.979164   4.412200
    22  C    7.025442   7.060696   8.049516   5.095704   4.987936
    23  H    8.002428   7.982115   9.044238   6.148469   5.983264
    24  H    7.918577   8.160060   8.861497   5.301889   5.264807
    25  C    6.827583   6.853226   7.798297   4.841608   5.038242
    26  C    5.729361   5.842616   6.639033   3.691860   4.076193
    27  H    5.911374   6.026238   6.723547   3.939658   4.565601
    28  C    8.105361   8.070991   9.043549   6.129557   6.451808
    29  O    8.460168   8.478334   9.317983   6.348993   6.852028
    30  N    9.087868   8.959949  10.078830   7.293480   7.473762
    31  H    9.844485   9.674778  10.813352   8.112406   8.367377
    32  H    8.804239   8.585275   9.830970   7.332561   7.403252
    33  C    7.861334   8.662327   8.225235   4.520455   5.143413
    34  C    7.657198   8.220774   8.346225   4.302414   4.670370
    35  C    8.328908   8.748049   9.117251   5.190277   5.500449
    36  C    9.980658  10.221376  10.896261   7.191935   7.274142
    37  C    8.687776   9.020149   9.570825   5.773199   5.829588
    38  O    7.030670   7.673718   7.704192   3.653187   3.803650
    39  S    8.225745   8.854861   8.756468   4.882361   5.539405
    40  H    8.252629   9.084451   8.641734   4.863065   5.276057
    41  H    6.818163   7.647652   7.149679   3.549518   4.233833
    42  H   10.024040  10.160434  10.994785   7.508969   7.508532
    43  H   10.239223  10.464059  11.126187   7.434425   7.668224
    44  H   10.813976  11.105820  11.712642   7.914162   7.943426
    45  H    8.877991   9.285380   9.738135   5.896275   5.804125
    46  H    8.871590   9.245074   9.638070   5.809055   6.260732
    47  H    1.090000   1.784086   1.788187   3.337617   2.918365
    48  H    8.499218   9.326863   8.757787   5.306770   6.008114
                    6          7          8          9         10
     6  O    0.000000
     7  H    0.977509   0.000000
     8  C    2.420031   3.281929   0.000000
     9  H    2.899002   3.752495   1.103281   0.000000
    10  O    2.590028   3.526701   1.400536   2.083630   0.000000
    11  H    3.516187   4.469501   1.935945   2.325860   0.963649
    12  C    2.507561   2.773129   2.358873   3.316867   2.932895
    13  H    2.654922   2.994988   2.639352   3.716812   2.650657
    14  C    3.655097   4.348951   1.564147   2.213571   2.476011
    15  H    4.277730   5.028749   2.177966   2.873972   2.495270
    16  O    3.615792   4.029476   2.409031   3.239060   3.256207
    17  N    3.240156   3.041436   3.733133   4.578646   4.337482
    18  C    3.778105   3.427233   4.315442   4.922349   5.203221
    19  H    3.706198   3.496658   3.940641   4.342223   5.041891
    20  C    4.866850   4.322563   5.656296   6.247736   6.491285
    21  H    5.516241   4.940667   6.291929   6.741454   7.245922
    22  C    5.449653   4.838146   6.422944   7.159534   7.035563
    23  H    6.459474   5.790291   7.489716   8.202591   8.110771
    24  H    5.202129   4.377388   6.783123   7.468982   7.223181
    25  C    5.150649   4.658309   6.037554   6.927018   6.418593
    26  C    4.079493   3.775436   4.773948   5.722999   5.086952
    27  H    4.223513   4.066997   4.794359   5.835277   4.827551
    28  C    6.298969   5.799192   7.248297   8.205663   7.431675
    29  O    6.364848   5.926701   7.367343   8.380205   7.322167
    30  N    7.520767   6.956362   8.455337   9.370155   8.749282
    31  H    8.311936   7.777770   9.208329  10.165244   9.405990
    32  H    7.728819   7.202609   8.456980   9.334130   8.890048
    33  C    3.175033   2.883834   5.367157   5.799765   4.866975
    34  C    3.460571   2.618990   5.666660   6.309303   5.650207
    35  C    4.594271   3.763695   6.589166   7.321675   6.631135
    36  C    6.843063   5.969664   8.653929   9.376908   8.884811
    37  C    5.393991   4.497615   7.266918   7.936875   7.550167
    38  O    2.808051   1.845418   5.089826   5.564862   5.294109
    39  S    3.796023   3.280364   5.931689   6.607877   5.490031
    40  H    3.512150   3.047789   5.834798   6.131239   5.533992
    41  H    2.194243   2.145182   4.298667   4.720544   3.820964
    42  H    7.348268   6.506230   8.958815   9.691615   9.302491
    43  H    7.039337   6.228506   8.819514   9.622457   8.898743
    44  H    7.453888   6.532158   9.408066  10.065253   9.636041
    45  H    5.438293   4.480606   7.432500   7.970788   7.802137
    46  H    5.204755   4.481122   7.096363   7.914520   6.970918
    47  H    4.610921   5.164672   2.797044   2.581150   4.110922
    48  H    3.966493   3.850979   5.934207   6.331249   5.220635
                   11         12         13         14         15
    11  H    0.000000
    12  C    3.718192   0.000000
    13  H    3.419383   1.098391   0.000000
    14  C    2.702125   2.315105   2.720715   0.000000
    15  H    2.439503   2.898848   2.920125   1.098442   0.000000
    16  O    3.757988   1.422491   2.092237   1.440167   2.065875
    17  N    5.162787   1.461368   2.085843   3.598618   4.215019
    18  C    6.018843   2.450076   3.333013   4.172322   4.996492
    19  H    5.797044   2.629494   3.678417   3.821722   4.789090
    20  C    7.330240   3.695439   4.438884   5.491402   6.276498
    21  H    8.071022   4.553279   5.389823   6.142439   7.011988
    22  C    7.894190   4.213683   4.671107   6.246173   6.871065
    23  H    8.971475   5.288798   5.729430   7.286364   7.909454
    24  H    8.157911   4.771541   5.076038   6.997338   7.644852
    25  C    7.247515   3.701678   3.855909   5.824500   6.257521
    26  C    5.898804   2.438497   2.497564   4.593773   4.977518
    27  H    5.577619   2.619301   2.213736   4.618143   4.773244
    28  C    8.228381   4.925613   4.820961   7.016463   7.289195
    29  O    8.086489   5.158458   4.795520   7.228444   7.362027
    30  N    9.546404   6.104065   6.127405   8.131944   8.453096
    31  H   10.170565   6.864694   6.773629   8.846913   9.072366
    32  H    9.661448   6.106800   6.271603   7.989806   8.351949
    33  C    5.650373   5.147187   4.800783   6.626888   6.990718
    34  C    6.595506   4.339057   4.249889   6.465267   6.993147
    35  C    7.571939   4.869640   4.782143   7.144871   7.640692
    36  C    9.823568   6.658709   6.735565   8.953242   9.499347
    37  C    8.503210   5.403345   5.560934   7.674089   8.286319
    38  O    6.246941   4.047786   4.223947   5.995972   6.675854
    39  S    6.340982   4.978625   4.525688   6.881004   7.191840
    40  H    6.336753   5.640336   5.478522   7.138671   7.631424
    41  H    4.619130   4.309123   4.005921   5.605108   5.983597
    42  H   10.226901   6.843070   7.010431   9.087801   9.648523
    43  H    9.812229   6.791657   6.697329   9.103212   9.535889
    44  H   10.587403   7.530085   7.629007   9.812111  10.399388
    45  H    8.765028   5.789012   6.068646   7.964981   8.676238
    46  H    7.872655   5.324665   5.037501   7.592917   7.955432
    47  H    4.277905   3.694102   4.504502   2.162962   3.048977
    48  H    5.883203   5.943449   5.471686   7.239454   7.485639
                   16         17         18         19         20
    16  O    0.000000
    17  N    2.356854   0.000000
    18  C    2.986300   1.363670   0.000000
    19  H    2.880107   2.100202   1.076606   0.000000
    20  C    4.234460   2.359032   1.351190   2.117617   0.000000
    21  H    4.970575   3.332134   2.104672   2.441141   1.077088
    22  C    4.898118   2.752644   2.383977   3.368817   1.396646
    23  H    5.921855   3.827433   3.353931   4.253752   2.147950
    24  H    5.811100   3.466326   3.238340   4.122956   2.473654
    25  C    4.473163   2.371050   2.747348   3.821466   2.406118
    26  C    3.317109   1.357107   2.355242   3.318003   2.731444
    27  H    3.485319   2.099598   3.324323   4.190312   3.809710
    28  C    5.689411   3.750758   4.256426   5.329796   3.799659
    29  O    6.014677   4.226870   5.002255   6.055862   4.762435
    30  N    6.742299   4.809657   5.008890   6.055196   4.218923
    31  H    7.474873   5.651898   5.963642   7.014842   5.228596
    32  H    6.561436   4.776310   4.796911   5.781301   3.927946
    33  C    6.478006   5.414474   6.043216   6.316146   6.672233
    34  C    5.740310   3.830057   4.241490   4.844824   4.429065
    35  C    6.195851   4.008973   4.356614   5.169204   4.174355
    36  C    7.779539   5.427274   5.377424   6.275236   4.548555
    37  C    6.587552   4.254956   4.184978   5.009132   3.574207
    38  O    5.382715   3.648911   3.781110   4.140090   4.111444
    39  S    6.386909   4.870257   5.606409   6.169927   5.991497
    40  H    6.965965   5.775000   6.175362   6.374593   6.699920
    41  H    5.569571   4.791167   5.455198   5.620110   6.264574
    42  H    7.821626   5.493631   5.308525   6.225951   4.286183
    43  H    7.939269   5.641600   5.837114   6.801485   5.139027
    44  H    8.687975   6.336191   6.192598   7.010741   5.339873
    45  H    6.969596   4.714188   4.414051   5.058162   3.808158
    46  H    6.634778   4.526312   5.081595   5.968052   4.907850
    47  H    2.775333   4.558418   4.470244   3.661630   5.681702
    48  H    7.222724   6.339367   7.055139   7.315671   7.722326
                   21         22         23         24         25
    21  H    0.000000
    22  C    2.146467   0.000000
    23  H    2.474136   1.077588   0.000000
    24  H    2.984307   1.761850   2.015977   0.000000
    25  C    3.387603   1.411135   2.169001   2.307422   0.000000
    26  C    3.808439   2.386154   3.367073   3.075874   1.361351
    27  H    4.886610   3.370121   4.270020   3.877897   2.116903
    28  C    4.674734   2.537641   2.760492   3.006997   1.509256
    29  O    5.702203   3.590581   3.900189   3.722756   2.380913
    30  N    4.862827   2.857080   2.528098   3.436344   2.455822
    31  H    5.878335   3.874225   3.528514   4.357293   3.330696
    32  H    4.467012   2.702260   2.271568   3.726556   2.590266
    33  C    7.331946   6.744619   7.540689   5.716109   6.303657
    34  C    5.098475   4.230480   4.894456   2.994711   3.964790
    35  C    4.854632   3.576493   4.030359   2.153951   3.304913
    36  C    4.921653   3.547922   3.266086   2.153947   3.768678
    37  C    4.026334   2.897091   3.040694   1.158849   3.165787
    38  O    4.626279   4.314865   5.044675   3.235874   4.337971
    39  S    6.757585   5.713392   6.410161   4.598647   5.116329
    40  H    7.221968   6.857857   7.583910   5.680227   6.631665
    41  H    6.944207   6.496206   7.389909   5.716492   6.046249
    42  H    4.566195   3.181030   2.605027   2.248568   3.598517
    43  H    5.670704   4.005403   3.817344   2.790526   3.846028
    44  H    5.565923   4.473000   4.118711   2.970290   4.820660
    45  H    4.020481   3.473477   3.582392   1.776889   4.014899
    46  H    5.671976   4.095143   4.480840   2.863708   3.522344
    47  H    5.975262   6.787605   7.728125   7.621345   6.801080
    48  H    8.407503   7.752779   8.547869   6.725642   7.217665
                   26         27         28         29         30
    26  C    0.000000
    27  H    1.078669   0.000000
    28  C    2.490775   2.686071   0.000000
    29  O    2.880522   2.626534   1.200814   0.000000
    30  N    3.693416   4.039395   1.419083   2.308150   0.000000
    31  H    4.446733   4.598332   2.021660   2.465141   1.023914
    32  H    3.827508   4.315178   2.046790   3.094194   1.022847
    33  C    5.575863   5.470501   6.929577   6.620234   8.141198
    34  C    3.694230   3.937881   4.584289   4.551858   5.621985
    35  C    3.487574   3.790700   3.612812   3.632313   4.489638
    36  C    4.712418   5.216459   3.570261   3.953871   3.589304
    37  C    3.799576   4.404967   3.535887   3.962033   3.997150
    38  O    3.954821   4.393033   5.277600   5.447423   6.260977
    39  S    4.612561   4.441106   5.459433   5.039771   6.639727
    40  H    6.035506   6.102605   7.332208   7.150200   8.439957
    41  H    5.145469   5.050085   6.838299   6.605574   8.102316
    42  H    4.757675   5.359287   3.346145   3.983559   2.983003
    43  H    4.726186   5.015659   3.286372   3.366929   3.412843
    44  H    5.720209   6.232026   4.650521   4.983063   4.579612
    45  H    4.539300   5.226926   4.573071   5.047938   4.960632
    46  H    3.733736   3.775754   3.402288   3.101772   4.318402
    47  H    5.806514   6.165237   8.182216   8.644938   9.095906
    48  H    6.446351   6.209306   7.737996   7.302085   8.980421
                   31         32         33         34         35
    31  H    0.000000
    32  H    1.680423   0.000000
    33  C    8.760725   8.697601   0.000000
    34  C    6.329892   6.164385   2.757925   0.000000
    35  C    5.153564   5.128013   4.014212   1.372971   0.000000
    36  C    4.164695   4.229448   6.427338   3.784500   2.500589
    37  C    4.775595   4.500740   5.240214   2.509128   1.461469
    38  O    7.081648   6.637337   2.834484   1.265693   2.374102
    39  S    7.169026   7.309788   1.796709   1.766262   2.610995
    40  H    9.118853   8.967395   1.090080   2.831259   4.102996
    41  H    8.771072   8.559052   1.088285   2.981420   4.295729
    42  H    3.596570   3.477124   7.303601   4.582685   3.318463
    43  H    3.777672   4.249525   6.389124   3.896703   2.537049
    44  H    5.088757   5.189856   6.743528   4.253910   3.109255
    45  H    5.775819   5.357151   5.236004   2.699145   2.111437
    46  H    4.795285   5.112629   4.311754   2.096783   1.078688
    47  H    9.926051   8.779931   7.781446   7.472089   8.166023
    48  H    9.530850   9.585468   1.090000   3.742531   4.905099
                   36         37         38         39         40
    36  C    0.000000
    37  C    1.512984   0.000000
    38  O    4.458442   3.000240   0.000000
    39  S    4.999073   4.018748   2.635434   0.000000
    40  H    6.344342   5.131300   2.627103   2.375829   0.000000
    41  H    6.762632   5.455163   2.785860   2.381321   1.770583
    42  H    1.084970   2.151949   5.134751   5.896097   7.240776
    43  H    1.084571   2.146048   4.813212   4.779791   6.453348
    44  H    1.086851   2.150461   4.856002   5.410371   6.516048
    45  H    2.166395   1.099388   2.814866   4.309535   4.902989
    46  H    2.653334   2.189808   3.287088   2.623639   4.579365
    47  H    9.734049   8.400224   6.702888   8.211158   8.032385
    48  H    7.288907   6.196564   3.920745   2.422985   1.785630
                   41         42         43         44         45
    41  H    0.000000
    42  H    7.533127   0.000000
    43  H    6.779894   1.752782   0.000000
    44  H    7.196373   1.764200   1.764309   0.000000
    45  H    5.480124   2.762343   2.994498   2.323757   0.000000
    46  H    4.685855   3.491131   2.227187   3.301549   3.009404
    47  H    6.760159   9.765201  10.101774  10.504077   8.469533
    48  H    1.775771   8.205110   7.150853   7.569024   6.223562
                   46         47         48
    46  H    0.000000
    47  H    8.822058   0.000000
    48  H    5.040687   8.495643   0.000000
 Symmetry turned off by external request.
 Stoichiometry    C16H24N2O5S
 Framework group  C1[X(C16H24N2O5S)]
 Deg. of freedom   138
 Full point group                 C1      NOp   1
 Rotational constants (GHZ):           0.2850225           0.1681924           0.1256279
 Leave Link  202 at Sun Apr  9 10:47:16 2023, MaxMem=  2684354560 cpu:               0.1 elap:               0.0
 (Enter /opt/gaussian/g16/l301.exe)
 Standard basis: def2TZVP (5D, 7F)
 Ernie: Thresh=  0.10000D-02 Tol=  0.10000D-05 Strict=F.
   894 basis functions,  1434 primitive gaussians,  1014 cartesian basis functions
    95 alpha electrons       95 beta electrons
       nuclear repulsion energy      2432.5555722416 Hartrees.
 IExCor= 4336 DFT=T Ex+Corr=M062X ExCW=0 ScaHFX=  0.540000
 ScaDFX=  1.000000  1.000000  1.000000  1.000000 ScalE2=  1.000000  1.000000
 IRadAn=      5 IRanWt=     -1 IRanGd=            0 ICorTp=0 IEmpDi=131
 NAtoms=   48 NActive=   48 NUniq=   48 SFac= 1.00D+00 NAtFMM=   60 NAOKFM=F Big=F
 Integral buffers will be    131072 words long.
 Raffenetti 2 integral format.
 Two-electron integral symmetry is turned off.
 R6Disp:  Grimme-D3 Dispersion energy=       -0.0041901422 Hartrees.
 Nuclear repulsion after empirical dispersion term =     2432.5513820994 Hartrees.
 Leave Link  301 at Sun Apr  9 10:47:16 2023, MaxMem=  2684354560 cpu:               0.9 elap:               0.1
 (Enter /opt/gaussian/g16/l302.exe)
 NPDir=0 NMtPBC=     1 NCelOv=     1 NCel=       1 NClECP=     1 NCelD=      1
         NCelK=      1 NCelE2=     1 NClLst=     1 CellRange=     0.0.
 One-electron integrals computed using PRISM.
   1 Symmetry operations used in ECPInt.
 ECPInt:  NShTT=   65703 NPrTT=  200010 LenC2=   56030 LenP2D=  118663.
 LDataN:  DoStor=T MaxTD1= 6 Len=  172
 NBasis=   894 RedAO= T EigKep=  2.75D-05  NBF=   894
 NBsUse=   894 1.00D-06 EigRej= -1.00D+00 NBFU=   894
 Precomputing XC quadrature grid using
 IXCGrd= 4 IRadAn=           5 IRanWt=          -1 IRanGd=           0 AccXCQ= 0.00D+00.
 Generated NRdTot=       0 NPtTot=           0 NUsed=           0 NTot=          32
 NSgBfM=   997   997   997   997   997 MxSgAt=    48 MxSgA2=    48.
 Leave Link  302 at Sun Apr  9 10:47:19 2023, MaxMem=  2684354560 cpu:              38.6 elap:               2.4
 (Enter /opt/gaussian/g16/l303.exe)
 DipDrv:  MaxL=1.
 Leave Link  303 at Sun Apr  9 10:47:19 2023, MaxMem=  2684354560 cpu:               4.9 elap:               0.3
 (Enter /opt/gaussian/g16/l401.exe)
 ExpMin= 9.52D-02 ExpMax= 6.07D+04 ExpMxC= 2.07D+03 IAcc=3 IRadAn=         5 AccDes= 0.00D+00
 Harris functional with IExCor= 1009 and IRadAn=       5 diagonalized for initial guess.
 HarFok:  IExCor= 1009 AccDes= 0.00D+00 IRadAn=         5 IDoV= 1 UseB2=F ITyADJ=14
 ICtDFT=  3500011 ScaDFX=  1.000000  1.000000  1.000000  1.000000
 FoFCou: FMM=F IPFlag=           0 FMFlag=      100000 FMFlg1=           0
         NFxFlg=           0 DoJE=T BraDBF=F KetDBF=T FulRan=T
         wScrn=  0.000000 ICntrl=       500 IOpCl=  0 I1Cent=   200000004 NGrid=           0
         NMat0=    1 NMatS0=      1 NMatT0=    0 NMatD0=    1 NMtDS0=    0 NMtDT0=    0
 Symmetry not used in FoFCou.
 Harris En= -1507.22397695478    
 JPrj=0 DoOrth=F DoCkMO=F.
 Leave Link  401 at Sun Apr  9 10:47:27 2023, MaxMem=  2684354560 cpu:             135.4 elap:               8.5
 (Enter /opt/gaussian/g16/l502.exe)
 Two-electron integral symmetry not used.
 Closed shell SCF:
 Using DIIS extrapolation, IDIIS=  1040.
 NGot=  2684354560 LenX=  2682275214 LenY=  2681246004
 Requested convergence on RMS density matrix=1.00D-08 within 128 cycles.
 Requested convergence on MAX density matrix=1.00D-06.
 Requested convergence on             energy=1.00D-06.
 No special actions if energy rises.
 Fock matrices will be formed incrementally for  20 cycles.
 Integral accuracy reduced to 1.0D-05 until final iterations.

 Cycle   1  Pass 0  IDiag  1:
 FoFJK:  IHMeth= 1 ICntrl=       0 DoSepK=F KAlg= 0 I1Cent=           0 FoldK=F
 IRaf= 780000000 NMat=       1 IRICut=       1 DoRegI=T DoRafI=F ISym2E= 0 IDoP0=0 IntGTp=1.
 FoFCou: FMM=F IPFlag=           0 FMFlag=      100000 FMFlg1=           0
         NFxFlg=           0 DoJE=F BraDBF=F KetDBF=F FulRan=T
         wScrn=  0.000000 ICntrl=         0 IOpCl=  0 I1Cent=           0 NGrid=           0
         NMat0=    1 NMatS0=      1 NMatT0=    0 NMatD0=    1 NMtDS0=    0 NMtDT0=    0
 Symmetry not used in FoFCou.
 E= -1507.05416553441    
 DIIS: error= 1.37D-02 at cycle   1 NSaved=   1.
 NSaved= 1 IEnMin= 1 EnMin= -1507.05416553441     IErMin= 1 ErrMin= 1.37D-02
 ErrMax= 1.37D-02  0.00D+00 EMaxC= 1.00D-01 BMatC= 1.03D+00 BMatP= 1.03D+00
 IDIUse=3 WtCom= 8.63D-01 WtEn= 1.37D-01
 Coeff-Com:  0.100D+01
 Coeff-En:   0.100D+01
 Coeff:      0.100D+01
 Gap=     0.103 Goal=   None    Shift=    0.000
 GapD=    0.103 DampG=1.000 DampE=0.500 DampFc=0.5000 IDamp=-1.
 Damping current iteration by 5.00D-01
 RMSDP=4.10D-03 MaxDP=8.81D-01              OVMax= 7.03D-01

 Cycle   2  Pass 0  IDiag  1:
 RMSU=  2.05D-03    CP:  1.01D+00
 E= -1507.28782722132     Delta-E=       -0.233661686915 Rises=F Damp=T
 DIIS: error= 5.84D-03 at cycle   2 NSaved=   2.
 NSaved= 2 IEnMin= 2 EnMin= -1507.28782722132     IErMin= 2 ErrMin= 5.84D-03
 ErrMax= 5.84D-03  0.00D+00 EMaxC= 1.00D-01 BMatC= 1.45D-01 BMatP= 1.03D+00
 IDIUse=3 WtCom= 9.42D-01 WtEn= 5.84D-02
 Coeff-Com:  0.954D-01 0.905D+00
 Coeff-En:   0.302D+00 0.698D+00
 Coeff:      0.107D+00 0.893D+00
 Gap=     0.327 Goal=   None    Shift=    0.000
 RMSDP=1.62D-03 MaxDP=2.54D-01 DE=-2.34D-01 OVMax= 7.39D-01

 Cycle   3  Pass 0  IDiag  1:
 RMSU=  1.27D-03    CP:  9.94D-01  5.15D-01
 E= -1507.65281192720     Delta-E=       -0.364984705884 Rises=F Damp=F
 DIIS: error= 8.24D-03 at cycle   3 NSaved=   3.
 NSaved= 3 IEnMin= 3 EnMin= -1507.65281192720     IErMin= 2 ErrMin= 5.84D-03
 ErrMax= 8.24D-03  0.00D+00 EMaxC= 1.00D-01 BMatC= 1.72D-01 BMatP= 1.45D-01
 IDIUse=3 WtCom= 9.92D-02 WtEn= 9.01D-01
 Coeff-Com: -0.453D-01 0.544D+00 0.501D+00
 Coeff-En:   0.000D+00 0.255D-01 0.975D+00
 Coeff:     -0.450D-02 0.769D-01 0.928D+00
 Gap=     0.001 Goal=   None    Shift=    0.000
 RMSDP=2.06D-03 MaxDP=1.97D-01 DE=-3.65D-01 OVMax= 8.47D-01

 Cycle   4  Pass 0  IDiag  1:
 RMSU=  1.28D-03    CP:  9.99D-01  1.15D+00  2.51D-01
 E= -1506.95145887739     Delta-E=        0.701353049809 Rises=F Damp=F
 DIIS: error= 1.70D-02 at cycle   4 NSaved=   4.
 NSaved= 4 IEnMin= 3 EnMin= -1507.65281192720     IErMin= 2 ErrMin= 5.84D-03
 ErrMax= 1.70D-02  0.00D+00 EMaxC= 1.00D-01 BMatC= 6.88D-01 BMatP= 1.45D-01
 IDIUse=2 WtCom= 0.00D+00 WtEn= 1.00D+00
 Coeff-En:   0.000D+00 0.000D+00 0.764D+00 0.236D+00
 Coeff:      0.000D+00 0.000D+00 0.764D+00 0.236D+00
 Gap=     0.196 Goal=   None    Shift=    0.000
 RMSDP=1.36D-03 MaxDP=1.60D-01 DE= 7.01D-01 OVMax= 6.15D-01

 Cycle   5  Pass 0  IDiag  1:
 RMSU=  6.00D-04    CP:  9.96D-01  7.60D-01  6.33D-01  3.87D-01
 E= -1507.80540964340     Delta-E=       -0.853950766005 Rises=F Damp=F
 DIIS: error= 4.58D-03 at cycle   5 NSaved=   5.
 NSaved= 5 IEnMin= 5 EnMin= -1507.80540964340     IErMin= 5 ErrMin= 4.58D-03
 ErrMax= 4.58D-03  0.00D+00 EMaxC= 1.00D-01 BMatC= 4.04D-02 BMatP= 1.45D-01
 IDIUse=3 WtCom= 9.54D-01 WtEn= 4.58D-02
 Coeff-Com:  0.660D-02 0.155D-02 0.283D+00-0.360D-01 0.745D+00
 Coeff-En:   0.000D+00 0.000D+00 0.209D+00 0.000D+00 0.791D+00
 Coeff:      0.629D-02 0.148D-02 0.280D+00-0.344D-01 0.747D+00
 Gap=     0.118 Goal=   None    Shift=    0.000
 RMSDP=3.20D-04 MaxDP=2.38D-02 DE=-8.54D-01 OVMax= 1.38D-01

 Cycle   6  Pass 0  IDiag  1:
 RMSU=  1.86D-04    CP:  9.95D-01  6.76D-01  7.36D-01  2.88D-01  8.91D-01
 E= -1507.84847443026     Delta-E=       -0.043064786863 Rises=F Damp=F
 DIIS: error= 5.39D-04 at cycle   6 NSaved=   6.
 NSaved= 6 IEnMin= 6 EnMin= -1507.84847443026     IErMin= 6 ErrMin= 5.39D-04
 ErrMax= 5.39D-04  0.00D+00 EMaxC= 1.00D-01 BMatC= 7.21D-04 BMatP= 4.04D-02
 IDIUse=3 WtCom= 9.95D-01 WtEn= 5.39D-03
 Coeff-Com: -0.195D-02 0.873D-02 0.445D-01-0.393D-01 0.255D+00 0.733D+00
 Coeff-En:   0.000D+00 0.000D+00 0.000D+00 0.000D+00 0.000D+00 0.100D+01
 Coeff:     -0.194D-02 0.868D-02 0.443D-01-0.391D-01 0.253D+00 0.735D+00
 Gap=     0.129 Goal=   None    Shift=    0.000
 RMSDP=6.99D-05 MaxDP=6.32D-03 DE=-4.31D-02 OVMax= 1.77D-02

 Cycle   7  Pass 0  IDiag  1:
 RMSU=  6.69D-05    CP:  9.95D-01  6.80D-01  7.40D-01  2.84D-01  9.20D-01
                    CP:  9.80D-01
 E= -1507.84912831727     Delta-E=       -0.000653887006 Rises=F Damp=F
 DIIS: error= 3.80D-04 at cycle   7 NSaved=   7.
 NSaved= 7 IEnMin= 7 EnMin= -1507.84912831727     IErMin= 7 ErrMin= 3.80D-04
 ErrMax= 3.80D-04  0.00D+00 EMaxC= 1.00D-01 BMatC= 2.59D-04 BMatP= 7.21D-04
 IDIUse=3 WtCom= 9.96D-01 WtEn= 3.80D-03
 Coeff-Com: -0.764D-03 0.678D-03-0.157D-01-0.294D-02-0.181D-01 0.381D+00
 Coeff-Com:  0.656D+00
 Coeff-En:   0.000D+00 0.000D+00 0.000D+00 0.000D+00 0.000D+00 0.126D+00
 Coeff-En:   0.874D+00
 Coeff:     -0.761D-03 0.675D-03-0.156D-01-0.293D-02-0.180D-01 0.380D+00
 Coeff:      0.657D+00
 Gap=     0.128 Goal=   None    Shift=    0.000
 RMSDP=3.10D-05 MaxDP=3.19D-03 DE=-6.54D-04 OVMax= 6.07D-03

 Cycle   8  Pass 0  IDiag  1:
 RMSU=  2.91D-05    CP:  9.95D-01  6.79D-01  7.41D-01  2.85D-01  9.25D-01
                    CP:  1.03D+00  1.02D+00
 E= -1507.84937473028     Delta-E=       -0.000246413007 Rises=F Damp=F
 DIIS: error= 8.18D-05 at cycle   8 NSaved=   8.
 NSaved= 8 IEnMin= 8 EnMin= -1507.84937473028     IErMin= 8 ErrMin= 8.18D-05
 ErrMax= 8.18D-05  0.00D+00 EMaxC= 1.00D-01 BMatC= 1.91D-05 BMatP= 2.59D-04
 IDIUse=1 WtCom= 1.00D+00 WtEn= 0.00D+00
 Coeff-Com: -0.279D-03-0.547D-04-0.135D-01 0.203D-02-0.280D-01 0.138D+00
 Coeff-Com:  0.269D+00 0.633D+00
 Coeff:     -0.279D-03-0.547D-04-0.135D-01 0.203D-02-0.280D-01 0.138D+00
 Coeff:      0.269D+00 0.633D+00
 Gap=     0.128 Goal=   None    Shift=    0.000
 RMSDP=1.26D-05 MaxDP=1.07D-03 DE=-2.46D-04 OVMax= 2.67D-03

 Cycle   9  Pass 0  IDiag  1:
 RMSU=  9.33D-06    CP:  9.95D-01  6.80D-01  7.41D-01  2.88D-01  9.25D-01
                    CP:  1.06D+00  1.10D+00  1.13D+00
 E= -1507.84938655417     Delta-E=       -0.000011823895 Rises=F Damp=F
 DIIS: error= 8.55D-05 at cycle   9 NSaved=   9.
 NSaved= 9 IEnMin= 9 EnMin= -1507.84938655417     IErMin= 8 ErrMin= 8.18D-05
 ErrMax= 8.55D-05  0.00D+00 EMaxC= 1.00D-01 BMatC= 7.62D-06 BMatP= 1.91D-05
 IDIUse=1 WtCom= 1.00D+00 WtEn= 0.00D+00
 Coeff-Com: -0.194D-03 0.358D-03-0.478D-02 0.135D-02-0.358D-02-0.145D-01
 Coeff-Com: -0.837D-01 0.175D+00 0.930D+00
 Coeff:     -0.194D-03 0.358D-03-0.478D-02 0.135D-02-0.358D-02-0.145D-01
 Coeff:     -0.837D-01 0.175D+00 0.930D+00
 Gap=     0.127 Goal=   None    Shift=    0.000
 RMSDP=1.42D-05 MaxDP=1.17D-03 DE=-1.18D-05 OVMax= 1.17D-03

 Cycle  10  Pass 0  IDiag  1:
 RMSU=  8.51D-06    CP:  9.96D-01  6.82D-01  7.40D-01  2.91D-01  9.26D-01
                    CP:  1.08D+00  1.11D+00  1.30D+00  1.68D+00
 E= -1507.84938717760     Delta-E=       -0.000000623433 Rises=F Damp=F
 DIIS: error= 2.61D-05 at cycle  10 NSaved=  10.
 NSaved=10 IEnMin=10 EnMin= -1507.84938717760     IErMin=10 ErrMin= 2.61D-05
 ErrMax= 2.61D-05  0.00D+00 EMaxC= 1.00D-01 BMatC= 1.49D-06 BMatP= 7.62D-06
 IDIUse=1 WtCom= 1.00D+00 WtEn= 0.00D+00
 Coeff-Com: -0.150D-03 0.295D-03-0.216D-02 0.552D-03 0.101D-02-0.145D-01
 Coeff-Com: -0.744D-01 0.228D-01 0.472D+00 0.595D+00
 Coeff:     -0.150D-03 0.295D-03-0.216D-02 0.552D-03 0.101D-02-0.145D-01
 Coeff:     -0.744D-01 0.228D-01 0.472D+00 0.595D+00
 Gap=     0.127 Goal=   None    Shift=    0.000
 RMSDP=8.48D-06 MaxDP=6.11D-04 DE=-6.23D-07 OVMax= 2.50D-04

 Initial convergence to 1.0D-05 achieved.  Increase integral accuracy.
 Cycle  11  Pass 1  IDiag  1:
 E= -1507.84932215195     Delta-E=        0.000065025652 Rises=F Damp=F
 DIIS: error= 3.08D-04 at cycle   1 NSaved=   1.
 NSaved= 1 IEnMin= 1 EnMin= -1507.84932215195     IErMin= 1 ErrMin= 3.08D-04
 ErrMax= 3.08D-04  0.00D+00 EMaxC= 1.00D-01 BMatC= 8.03D-05 BMatP= 8.03D-05
 IDIUse=3 WtCom= 9.97D-01 WtEn= 3.08D-03
 Coeff-Com:  0.100D+01
 Coeff-En:   0.100D+01
 Coeff:      0.100D+01
 Gap=     0.127 Goal=   None    Shift=    0.000
 RMSDP=8.48D-06 MaxDP=6.11D-04 DE= 6.50D-05 OVMax= 1.14D-03

 Cycle  12  Pass 1  IDiag  1:
 RMSU=  4.32D-04    CP:  9.95D-01
 E= -1507.84937080421     Delta-E=       -0.000048652254 Rises=F Damp=F
 DIIS: error= 2.47D-05 at cycle   2 NSaved=   2.
 NSaved= 2 IEnMin= 2 EnMin= -1507.84937080421     IErMin= 2 ErrMin= 2.47D-05
 ErrMax= 2.47D-05  0.00D+00 EMaxC= 1.00D-01 BMatC= 9.22D-07 BMatP= 8.03D-05
 IDIUse=1 WtCom= 1.00D+00 WtEn= 0.00D+00
 Coeff-Com:  0.811D-03 0.999D+00
 Coeff:      0.811D-03 0.999D+00
 Gap=     0.128 Goal=   None    Shift=    0.000
 RMSDP=1.61D-05 MaxDP=9.27D-04 DE=-4.87D-05 OVMax= 2.13D-03

 Cycle  13  Pass 1  IDiag  1:
 RMSU=  7.00D-06    CP:  9.94D-01  1.03D+00
 E= -1507.84936791827     Delta-E=        0.000002885932 Rises=F Damp=F
 DIIS: error= 4.68D-05 at cycle   3 NSaved=   3.
 NSaved= 3 IEnMin= 2 EnMin= -1507.84937080421     IErMin= 2 ErrMin= 2.47D-05
 ErrMax= 4.68D-05  0.00D+00 EMaxC= 1.00D-01 BMatC= 3.56D-06 BMatP= 9.22D-07
 IDIUse=1 WtCom= 1.00D+00 WtEn= 0.00D+00
 Coeff-Com: -0.111D-01 0.672D+00 0.339D+00
 Coeff:     -0.111D-01 0.672D+00 0.339D+00
 Gap=     0.127 Goal=   None    Shift=    0.000
 RMSDP=3.49D-06 MaxDP=3.48D-04 DE= 2.89D-06 OVMax= 1.37D-03

 Cycle  14  Pass 1  IDiag  1:
 RMSU=  2.61D-06    CP:  9.94D-01  1.03D+00  6.80D-01
 E= -1507.84937188254     Delta-E=       -0.000003964262 Rises=F Damp=F
 DIIS: error= 9.99D-07 at cycle   4 NSaved=   4.
 NSaved= 4 IEnMin= 4 EnMin= -1507.84937188254     IErMin= 4 ErrMin= 9.99D-07
 ErrMax= 9.99D-07  0.00D+00 EMaxC= 1.00D-01 BMatC= 4.65D-09 BMatP= 9.22D-07
 IDIUse=1 WtCom= 1.00D+00 WtEn= 0.00D+00
 Coeff-Com: -0.328D-02 0.184D+00 0.896D-01 0.730D+00
 Coeff:     -0.328D-02 0.184D+00 0.896D-01 0.730D+00
 Gap=     0.127 Goal=   None    Shift=    0.000
 RMSDP=3.58D-07 MaxDP=2.44D-05 DE=-3.96D-06 OVMax= 3.85D-05

 Cycle  15  Pass 1  IDiag  1:
 RMSU=  1.92D-07    CP:  9.94D-01  1.03D+00  7.05D-01  1.05D+00
 E= -1507.84937188575     Delta-E=       -0.000000003212 Rises=F Damp=F
 DIIS: error= 8.65D-07 at cycle   5 NSaved=   5.
 NSaved= 5 IEnMin= 5 EnMin= -1507.84937188575     IErMin= 5 ErrMin= 8.65D-07
 ErrMax= 8.65D-07  0.00D+00 EMaxC= 1.00D-01 BMatC= 2.26D-09 BMatP= 4.65D-09
 IDIUse=1 WtCom= 1.00D+00 WtEn= 0.00D+00
 Coeff-Com:  0.401D-03-0.314D-01-0.228D-01 0.387D+00 0.667D+00
 Coeff:      0.401D-03-0.314D-01-0.228D-01 0.387D+00 0.667D+00
 Gap=     0.127 Goal=   None    Shift=    0.000
 RMSDP=1.64D-07 MaxDP=1.03D-05 DE=-3.21D-09 OVMax= 1.28D-05

 Cycle  16  Pass 1  IDiag  1:
 RMSU=  9.19D-08    CP:  9.94D-01  1.03D+00  7.13D-01  1.07D+00  1.16D+00
 E= -1507.84937188790     Delta-E=       -0.000000002157 Rises=F Damp=F
 DIIS: error= 2.87D-07 at cycle   6 NSaved=   6.
 NSaved= 6 IEnMin= 6 EnMin= -1507.84937188790     IErMin= 6 ErrMin= 2.87D-07
 ErrMax= 2.87D-07  0.00D+00 EMaxC= 1.00D-01 BMatC= 2.59D-10 BMatP= 2.26D-09
 IDIUse=1 WtCom= 1.00D+00 WtEn= 0.00D+00
 Coeff-Com:  0.443D-03-0.292D-01-0.202D-01 0.140D+00 0.331D+00 0.579D+00
 Coeff:      0.443D-03-0.292D-01-0.202D-01 0.140D+00 0.331D+00 0.579D+00
 Gap=     0.127 Goal=   None    Shift=    0.000
 RMSDP=3.87D-08 MaxDP=2.84D-06 DE=-2.16D-09 OVMax= 8.31D-06

 Cycle  17  Pass 1  IDiag  1:
 RMSU=  2.70D-08    CP:  9.94D-01  1.03D+00  7.15D-01  1.08D+00  1.28D+00
                    CP:  1.07D+00
 E= -1507.84937188813     Delta-E=       -0.000000000223 Rises=F Damp=F
 DIIS: error= 1.54D-07 at cycle   7 NSaved=   7.
 NSaved= 7 IEnMin= 7 EnMin= -1507.84937188813     IErMin= 7 ErrMin= 1.54D-07
 ErrMax= 1.54D-07  0.00D+00 EMaxC= 1.00D-01 BMatC= 4.96D-11 BMatP= 2.59D-10
 IDIUse=1 WtCom= 1.00D+00 WtEn= 0.00D+00
 Coeff-Com:  0.235D-04-0.196D-03-0.226D-02-0.626D-01-0.889D-01 0.193D+00
 Coeff-Com:  0.961D+00
 Coeff:      0.235D-04-0.196D-03-0.226D-02-0.626D-01-0.889D-01 0.193D+00
 Coeff:      0.961D+00
 Gap=     0.127 Goal=   None    Shift=    0.000
 RMSDP=3.18D-08 MaxDP=2.88D-06 DE=-2.23D-10 OVMax= 4.87D-06

 Cycle  18  Pass 1  IDiag  1:
 RMSU=  1.70D-08    CP:  9.94D-01  1.03D+00  7.15D-01  1.08D+00  1.36D+00
                    CP:  1.25D+00  1.37D+00
 E= -1507.84937188826     Delta-E=       -0.000000000129 Rises=F Damp=F
 DIIS: error= 7.00D-08 at cycle   8 NSaved=   8.
 NSaved= 8 IEnMin= 8 EnMin= -1507.84937188826     IErMin= 8 ErrMin= 7.00D-08
 ErrMax= 7.00D-08  0.00D+00 EMaxC= 1.00D-01 BMatC= 6.76D-12 BMatP= 4.96D-11
 IDIUse=1 WtCom= 1.00D+00 WtEn= 0.00D+00
 Coeff-Com: -0.450D-04 0.362D-02 0.981D-03-0.465D-01-0.832D-01 0.266D-01
 Coeff-Com:  0.447D+00 0.652D+00
 Coeff:     -0.450D-04 0.362D-02 0.981D-03-0.465D-01-0.832D-01 0.266D-01
 Coeff:      0.447D+00 0.652D+00
 Gap=     0.127 Goal=   None    Shift=    0.000
 RMSDP=8.89D-09 MaxDP=7.63D-07 DE=-1.29D-10 OVMax= 1.71D-06

 SCF Done:  E(RM062X) =  -1507.84937189     A.U. after   18 cycles
            NFock= 18  Conv=0.89D-08     -V/T= 2.0039
 KE= 1.502065241121D+03 PE=-8.403413993678D+03 EE= 2.960947998569D+03
 Leave Link  502 at Sun Apr  9 11:06:22 2023, MaxMem=  2684354560 cpu:           18135.1 elap:            1134.0
 (Enter /opt/gaussian/g16/l601.exe)
 Copying SCF densities to generalized density rwf, IOpCl= 0 IROHF=0.

 **********************************************************************

            Population analysis using the SCF density.

 **********************************************************************

 Alpha  occ. eigenvalues --  -89.85887 -19.66245 -19.64206 -19.62582 -19.61610
 Alpha  occ. eigenvalues --  -19.55677 -14.85969 -14.78670 -10.67545 -10.65779
 Alpha  occ. eigenvalues --  -10.63408 -10.62382 -10.61359 -10.61225 -10.61121
 Alpha  occ. eigenvalues --  -10.59656 -10.59016 -10.58321 -10.57827 -10.54953
 Alpha  occ. eigenvalues --  -10.52000 -10.51840 -10.50620 -10.48825  -8.21862
 Alpha  occ. eigenvalues --   -6.13817  -6.13594  -6.13360  -1.21019  -1.19530
 Alpha  occ. eigenvalues --   -1.17136  -1.14435  -1.13701  -1.09064  -1.02813
 Alpha  occ. eigenvalues --   -0.96946  -0.92256  -0.89640  -0.87870  -0.87268
 Alpha  occ. eigenvalues --   -0.84673  -0.81207  -0.79353  -0.78379  -0.75988
 Alpha  occ. eigenvalues --   -0.72211  -0.70908  -0.69484  -0.68364  -0.66258
 Alpha  occ. eigenvalues --   -0.64768  -0.64371  -0.62154  -0.61513  -0.60950
 Alpha  occ. eigenvalues --   -0.59535  -0.57352  -0.56508  -0.56297  -0.55733
 Alpha  occ. eigenvalues --   -0.54933  -0.54173  -0.52901  -0.51801  -0.50999
 Alpha  occ. eigenvalues --   -0.50525  -0.50243  -0.50021  -0.49622  -0.48763
 Alpha  occ. eigenvalues --   -0.48221  -0.47864  -0.47088  -0.46552  -0.46140
 Alpha  occ. eigenvalues --   -0.45124  -0.44680  -0.43835  -0.42773  -0.42653
 Alpha  occ. eigenvalues --   -0.41404  -0.39925  -0.39438  -0.38315  -0.38148
 Alpha  occ. eigenvalues --   -0.37349  -0.36747  -0.36185  -0.35695  -0.35321
 Alpha  occ. eigenvalues --   -0.35097  -0.33472  -0.27878  -0.26810  -0.19491
 Alpha virt. eigenvalues --   -0.06765  -0.03570   0.03804   0.03994   0.04927
 Alpha virt. eigenvalues --    0.05317   0.07075   0.07174   0.08240   0.09055
 Alpha virt. eigenvalues --    0.09624   0.09772   0.10188   0.10904   0.11009
 Alpha virt. eigenvalues --    0.11488   0.11772   0.12601   0.13193   0.13838
 Alpha virt. eigenvalues --    0.14103   0.14423   0.14724   0.15137   0.15537
 Alpha virt. eigenvalues --    0.15991   0.16770   0.17101   0.17195   0.17454
 Alpha virt. eigenvalues --    0.18081   0.18817   0.19064   0.19272   0.19733
 Alpha virt. eigenvalues --    0.20341   0.20881   0.21089   0.21972   0.22444
 Alpha virt. eigenvalues --    0.22643   0.22805   0.23640   0.23970   0.24425
 Alpha virt. eigenvalues --    0.24651   0.25080   0.25605   0.25928   0.26556
 Alpha virt. eigenvalues --    0.26749   0.27270   0.27860   0.28075   0.28409
 Alpha virt. eigenvalues --    0.29240   0.30129   0.30248   0.30632   0.30736
 Alpha virt. eigenvalues --    0.31381   0.31791   0.32048   0.32168   0.32814
 Alpha virt. eigenvalues --    0.33302   0.33918   0.34427   0.34986   0.35245
 Alpha virt. eigenvalues --    0.36053   0.36547   0.37204   0.37325   0.38026
 Alpha virt. eigenvalues --    0.38339   0.39008   0.39407   0.39781   0.40161
 Alpha virt. eigenvalues --    0.40398   0.40674   0.41455   0.41531   0.41769
 Alpha virt. eigenvalues --    0.42344   0.42574   0.42950   0.43760   0.43908
 Alpha virt. eigenvalues --    0.44296   0.44614   0.45080   0.45500   0.45789
 Alpha virt. eigenvalues --    0.46127   0.46641   0.46748   0.46978   0.47296
 Alpha virt. eigenvalues --    0.47630   0.47769   0.48439   0.48568   0.48812
 Alpha virt. eigenvalues --    0.49260   0.49988   0.50322   0.50662   0.50780
 Alpha virt. eigenvalues --    0.51377   0.51579   0.52222   0.52435   0.52636
 Alpha virt. eigenvalues --    0.53062   0.53544   0.53888   0.53917   0.54367
 Alpha virt. eigenvalues --    0.54584   0.55373   0.55819   0.56512   0.56975
 Alpha virt. eigenvalues --    0.57324   0.57753   0.58483   0.58820   0.59075
 Alpha virt. eigenvalues --    0.59338   0.59630   0.60696   0.61089   0.62236
 Alpha virt. eigenvalues --    0.62354   0.62801   0.63519   0.64144   0.64807
 Alpha virt. eigenvalues --    0.65859   0.66026   0.66721   0.67540   0.68231
 Alpha virt. eigenvalues --    0.68464   0.68817   0.69481   0.69771   0.70422
 Alpha virt. eigenvalues --    0.71119   0.71381   0.71712   0.72724   0.73568
 Alpha virt. eigenvalues --    0.74160   0.74233   0.76305   0.76691   0.76972
 Alpha virt. eigenvalues --    0.77649   0.78192   0.79058   0.80360   0.80865
 Alpha virt. eigenvalues --    0.81033   0.81993   0.82407   0.83552   0.83877
 Alpha virt. eigenvalues --    0.84505   0.85101   0.85770   0.85853   0.86932
 Alpha virt. eigenvalues --    0.87752   0.87831   0.88772   0.89052   0.90135
 Alpha virt. eigenvalues --    0.90438   0.91432   0.92183   0.92450   0.93016
 Alpha virt. eigenvalues --    0.93620   0.94602   0.95265   0.95333   0.96300
 Alpha virt. eigenvalues --    0.96479   0.97407   0.97766   0.98771   0.99222
 Alpha virt. eigenvalues --    1.00049   1.00521   1.01192   1.02160   1.03477
 Alpha virt. eigenvalues --    1.03597   1.04492   1.04775   1.05163   1.05972
 Alpha virt. eigenvalues --    1.06944   1.07939   1.08354   1.08741   1.09089
 Alpha virt. eigenvalues --    1.10304   1.10614   1.11533   1.12599   1.13339
 Alpha virt. eigenvalues --    1.13684   1.13968   1.14503   1.15032   1.15133
 Alpha virt. eigenvalues --    1.16802   1.17189   1.17869   1.18191   1.19057
 Alpha virt. eigenvalues --    1.20340   1.21431   1.21784   1.22174   1.23110
 Alpha virt. eigenvalues --    1.23749   1.24024   1.25715   1.26165   1.26644
 Alpha virt. eigenvalues --    1.27143   1.28376   1.28901   1.30078   1.30364
 Alpha virt. eigenvalues --    1.30772   1.32273   1.32851   1.34368   1.34870
 Alpha virt. eigenvalues --    1.35198   1.36780   1.37018   1.38660   1.38930
 Alpha virt. eigenvalues --    1.39471   1.40046   1.41478   1.42394   1.44057
 Alpha virt. eigenvalues --    1.44447   1.45196   1.47037   1.48835   1.49346
 Alpha virt. eigenvalues --    1.50195   1.50344   1.51565   1.52032   1.53003
 Alpha virt. eigenvalues --    1.53262   1.53779   1.54045   1.55472   1.55811
 Alpha virt. eigenvalues --    1.56464   1.56742   1.57427   1.57828   1.58236
 Alpha virt. eigenvalues --    1.59103   1.59630   1.59896   1.60129   1.61405
 Alpha virt. eigenvalues --    1.61522   1.62066   1.62299   1.62473   1.62685
 Alpha virt. eigenvalues --    1.63718   1.64117   1.64281   1.65645   1.66215
 Alpha virt. eigenvalues --    1.66889   1.67344   1.67656   1.68172   1.68844
 Alpha virt. eigenvalues --    1.69287   1.69427   1.70147   1.71218   1.71550
 Alpha virt. eigenvalues --    1.72319   1.72865   1.73334   1.73825   1.74292
 Alpha virt. eigenvalues --    1.75473   1.75965   1.76126   1.77434   1.78082
 Alpha virt. eigenvalues --    1.78844   1.79684   1.80529   1.81268   1.81685
 Alpha virt. eigenvalues --    1.81965   1.82625   1.82961   1.84357   1.85770
 Alpha virt. eigenvalues --    1.86320   1.86521   1.86933   1.88012   1.88507
 Alpha virt. eigenvalues --    1.89277   1.89953   1.90361   1.90559   1.91075
 Alpha virt. eigenvalues --    1.92358   1.92547   1.93123   1.93360   1.93450
 Alpha virt. eigenvalues --    1.94679   1.94874   1.96044   1.96858   1.97614
 Alpha virt. eigenvalues --    1.97994   1.98576   1.99101   2.00325   2.00829
 Alpha virt. eigenvalues --    2.02718   2.02898   2.03455   2.05230   2.05370
 Alpha virt. eigenvalues --    2.05509   2.05946   2.07154   2.07645   2.08550
 Alpha virt. eigenvalues --    2.08939   2.09537   2.10178   2.10697   2.11784
 Alpha virt. eigenvalues --    2.12087   2.13040   2.13732   2.14845   2.14988
 Alpha virt. eigenvalues --    2.15395   2.15931   2.17333   2.18142   2.18923
 Alpha virt. eigenvalues --    2.19474   2.20010   2.21084   2.21591   2.21963
 Alpha virt. eigenvalues --    2.22179   2.23123   2.23968   2.25217   2.26055
 Alpha virt. eigenvalues --    2.26887   2.27358   2.27834   2.28311   2.28732
 Alpha virt. eigenvalues --    2.29334   2.30044   2.30480   2.31070   2.31792
 Alpha virt. eigenvalues --    2.32324   2.32485   2.33851   2.34076   2.34755
 Alpha virt. eigenvalues --    2.35450   2.37899   2.38006   2.38591   2.39611
 Alpha virt. eigenvalues --    2.40806   2.41265   2.42017   2.43736   2.43864
 Alpha virt. eigenvalues --    2.44747   2.45416   2.45903   2.46137   2.46834
 Alpha virt. eigenvalues --    2.47062   2.47737   2.48128   2.48897   2.50124
 Alpha virt. eigenvalues --    2.51563   2.52447   2.53631   2.53741   2.54669
 Alpha virt. eigenvalues --    2.55865   2.57044   2.57360   2.58073   2.58371
 Alpha virt. eigenvalues --    2.59455   2.59799   2.60408   2.60953   2.61706
 Alpha virt. eigenvalues --    2.61862   2.62229   2.63191   2.64234   2.64867
 Alpha virt. eigenvalues --    2.65323   2.66576   2.67489   2.68488   2.68777
 Alpha virt. eigenvalues --    2.69185   2.69395   2.70366   2.70664   2.71066
 Alpha virt. eigenvalues --    2.71323   2.72371   2.72854   2.73528   2.73891
 Alpha virt. eigenvalues --    2.74977   2.75601   2.76106   2.76699   2.77659
 Alpha virt. eigenvalues --    2.78028   2.78850   2.79943   2.80310   2.81130
 Alpha virt. eigenvalues --    2.81187   2.81491   2.82589   2.83644   2.84603
 Alpha virt. eigenvalues --    2.85112   2.85225   2.85716   2.86660   2.87643
 Alpha virt. eigenvalues --    2.88308   2.89036   2.90321   2.91060   2.92273
 Alpha virt. eigenvalues --    2.92930   2.93841   2.94230   2.94828   2.95702
 Alpha virt. eigenvalues --    2.97381   2.98166   2.98488   2.98883   2.99640
 Alpha virt. eigenvalues --    3.00756   3.01342   3.01628   3.02065   3.03065
 Alpha virt. eigenvalues --    3.03333   3.04340   3.04887   3.05813   3.06344
 Alpha virt. eigenvalues --    3.06981   3.07676   3.07925   3.08705   3.09712
 Alpha virt. eigenvalues --    3.10686   3.11161   3.11363   3.11904   3.13011
 Alpha virt. eigenvalues --    3.13306   3.13592   3.14589   3.14815   3.15300
 Alpha virt. eigenvalues --    3.16261   3.17084   3.17268   3.18618   3.18646
 Alpha virt. eigenvalues --    3.18849   3.19566   3.20401   3.20646   3.20671
 Alpha virt. eigenvalues --    3.22045   3.23006   3.23577   3.24034   3.24560
 Alpha virt. eigenvalues --    3.24895   3.26122   3.26457   3.27458   3.27952
 Alpha virt. eigenvalues --    3.29049   3.29565   3.29979   3.30422   3.31199
 Alpha virt. eigenvalues --    3.32050   3.32191   3.32903   3.33383   3.33590
 Alpha virt. eigenvalues --    3.34695   3.35049   3.35489   3.36692   3.37362
 Alpha virt. eigenvalues --    3.37534   3.37832   3.38614   3.38969   3.39371
 Alpha virt. eigenvalues --    3.39538   3.40415   3.40595   3.41467   3.41820
 Alpha virt. eigenvalues --    3.42683   3.43086   3.43508   3.44966   3.45552
 Alpha virt. eigenvalues --    3.45884   3.46083   3.47405   3.47962   3.48793
 Alpha virt. eigenvalues --    3.48963   3.49441   3.50453   3.51339   3.51609
 Alpha virt. eigenvalues --    3.53008   3.53127   3.53834   3.54709   3.55544
 Alpha virt. eigenvalues --    3.55962   3.56789   3.57968   3.58271   3.59485
 Alpha virt. eigenvalues --    3.59770   3.60983   3.62406   3.63272   3.64743
 Alpha virt. eigenvalues --    3.65992   3.66284   3.68874   3.69590   3.69682
 Alpha virt. eigenvalues --    3.71028   3.71916   3.72600   3.73760   3.74790
 Alpha virt. eigenvalues --    3.75183   3.75602   3.75996   3.77370   3.78241
 Alpha virt. eigenvalues --    3.79577   3.80222   3.82198   3.83008   3.83689
 Alpha virt. eigenvalues --    3.85097   3.85978   3.86558   3.87914   3.88655
 Alpha virt. eigenvalues --    3.89372   3.90402   3.91619   3.93128   3.93348
 Alpha virt. eigenvalues --    3.94297   3.95164   3.96481   3.97729   3.99612
 Alpha virt. eigenvalues --    4.00559   4.00960   4.04120   4.04819   4.06312
 Alpha virt. eigenvalues --    4.07075   4.07328   4.08626   4.10595   4.10874
 Alpha virt. eigenvalues --    4.11230   4.12979   4.14093   4.15488   4.18168
 Alpha virt. eigenvalues --    4.19106   4.19934   4.22714   4.23374   4.25110
 Alpha virt. eigenvalues --    4.26160   4.27123   4.28175   4.29435   4.30309
 Alpha virt. eigenvalues --    4.31370   4.32108   4.32756   4.34150   4.35551
 Alpha virt. eigenvalues --    4.37966   4.38551   4.40463   4.40973   4.41401
 Alpha virt. eigenvalues --    4.44001   4.44220   4.45773   4.46632   4.47888
 Alpha virt. eigenvalues --    4.49758   4.50642   4.53846   4.54299   4.57011
 Alpha virt. eigenvalues --    4.60007   4.61349   4.62689   4.66192   4.66912
 Alpha virt. eigenvalues --    4.69420   4.72062   4.73907   4.74798   4.75933
 Alpha virt. eigenvalues --    4.77237   4.78106   4.80290   4.80837   4.82181
 Alpha virt. eigenvalues --    4.83776   4.85877   4.88337   4.89097   4.90457
 Alpha virt. eigenvalues --    4.91677   4.92253   4.95293   4.96185   4.97076
 Alpha virt. eigenvalues --    4.98272   4.98537   5.01012   5.02042   5.04793
 Alpha virt. eigenvalues --    5.06756   5.07680   5.11665   5.15163   5.18738
 Alpha virt. eigenvalues --    5.20360   5.22196   5.24736   5.27277   5.28271
 Alpha virt. eigenvalues --    5.28852   5.29261   5.29583   5.31288   5.36341
 Alpha virt. eigenvalues --    5.38876   5.41051   5.43126   5.44684   5.46696
 Alpha virt. eigenvalues --    5.48239   5.49923   5.52737   5.54333   5.58927
 Alpha virt. eigenvalues --    5.62502   5.62899   5.70939   5.74288   5.75949
 Alpha virt. eigenvalues --    5.77093   5.79048   5.81676   5.82591   5.83864
 Alpha virt. eigenvalues --    5.84795   5.86377   5.87914   5.90165   5.94111
 Alpha virt. eigenvalues --    5.97377   6.00582   6.05712   6.17512   6.18547
 Alpha virt. eigenvalues --    6.22245   6.23769   6.27148   6.31079   6.37068
 Alpha virt. eigenvalues --    6.39586   6.41027   6.50536   6.51719   6.53769
 Alpha virt. eigenvalues --    6.55477   6.62503   6.69076   6.72268   6.72583
 Alpha virt. eigenvalues --    6.75357   6.78543   6.83331   6.84266   6.85903
 Alpha virt. eigenvalues --    6.89254   6.90804   6.98889   7.04882   7.06131
 Alpha virt. eigenvalues --    7.08176   7.09665   7.11546   7.16597   7.23172
 Alpha virt. eigenvalues --    7.26427   7.31580   9.04345   9.44173   9.57668
 Alpha virt. eigenvalues --   19.94069  22.34739  22.44531  22.56062  22.58021
 Alpha virt. eigenvalues --   22.62784  22.68814  22.69727  22.76478  22.80021
 Alpha virt. eigenvalues --   22.82718  22.91138  22.94240  23.07228  23.15674
 Alpha virt. eigenvalues --   23.22450  23.37616  32.08999  33.15436  44.11415
 Alpha virt. eigenvalues --   44.21021  44.22676  44.27952  44.48968
          Condensed to atoms (all electrons):
               1          2          3          4          5          6
     1  C    5.103336   0.424220   0.418472  -0.006914   0.000501  -0.000379
     2  H    0.424220   0.510163  -0.022372  -0.001087   0.000230  -0.000003
     3  H    0.418472  -0.022372   0.533698   0.001639  -0.000017  -0.000006
     4  C   -0.006914  -0.001087   0.001639   5.399470   0.492719   0.292714
     5  H    0.000501   0.000230  -0.000017   0.492719   0.555711  -0.032817
     6  O   -0.000379  -0.000003  -0.000006   0.292714  -0.032817   8.042325
     7  H   -0.000064  -0.000004   0.000004  -0.036220  -0.013339   0.276242
     8  C    0.013684   0.012887  -0.009516  -0.038108  -0.065901  -0.057540
     9  H    0.011249   0.000127  -0.002332  -0.099607   0.001486   0.004317
    10  O    0.006859  -0.000371   0.000286  -0.040664   0.001438  -0.009540
    11  H   -0.001429  -0.000121   0.000473   0.015587  -0.000745  -0.000497
    12  C   -0.005051  -0.000118   0.000639   0.000036  -0.100698  -0.037908
    13  H    0.000060   0.000012   0.000105  -0.084211   0.006761   0.009925
    14  C    0.166785  -0.050207  -0.042096   0.122816   0.014054   0.006664
    15  H   -0.069186  -0.007245  -0.003345  -0.007624   0.000010   0.000116
    16  O   -0.028456   0.000808   0.005053  -0.058407   0.002079   0.005118
    17  N    0.000017  -0.000053  -0.000034   0.009634  -0.011538  -0.003086
    18  C   -0.000984   0.000005   0.000021  -0.009856  -0.001582   0.003534
    19  H   -0.000057  -0.000041   0.000028  -0.008146  -0.000466   0.000745
    20  C    0.000050  -0.000001  -0.000001   0.006478   0.006771  -0.001391
    21  H    0.000003   0.000000  -0.000000   0.000009   0.000123  -0.000020
    22  C   -0.000015   0.000000   0.000000   0.001562  -0.000510   0.000131
    23  H   -0.000000   0.000000  -0.000000   0.000024  -0.000001   0.000001
    24  H    0.000000  -0.000000   0.000000  -0.000245  -0.000109  -0.000005
    25  C   -0.000056  -0.000005   0.000001  -0.009048   0.000052  -0.000258
    26  C   -0.000344   0.000046  -0.000005   0.014869  -0.001690  -0.004935
    27  H   -0.000019   0.000001  -0.000000   0.000625  -0.000110  -0.000102
    28  C    0.000000  -0.000000  -0.000000  -0.000036   0.000008  -0.000006
    29  O   -0.000000   0.000000  -0.000000   0.000007  -0.000000  -0.000000
    30  N   -0.000000   0.000000   0.000000  -0.000000  -0.000000   0.000000
    31  H   -0.000000   0.000000   0.000000   0.000000   0.000000  -0.000000
    32  H    0.000000   0.000000  -0.000000   0.000000   0.000000   0.000000
    33  C    0.000001  -0.000000   0.000000   0.000124  -0.000369  -0.014665
    34  C    0.000001  -0.000000   0.000000   0.001648   0.000370   0.009029
    35  C    0.000000   0.000000  -0.000000  -0.000134   0.000220   0.001015
    36  C   -0.000000   0.000000   0.000000   0.000005   0.000000  -0.000001
    37  C   -0.000000   0.000000   0.000000   0.000009   0.000025  -0.000011
    38  O   -0.000000   0.000000   0.000000   0.002998  -0.000116  -0.035151
    39  S   -0.000000  -0.000000  -0.000000  -0.000079   0.000011   0.000798
    40  H   -0.000000   0.000000  -0.000000   0.000130   0.000033   0.000214
    41  H   -0.000003   0.000000  -0.000000  -0.000290   0.000415   0.008848
    42  H    0.000000  -0.000000   0.000000  -0.000000  -0.000000  -0.000000
    43  H    0.000000  -0.000000  -0.000000   0.000000  -0.000000   0.000000
    44  H    0.000000  -0.000000  -0.000000  -0.000000  -0.000000   0.000000
    45  H   -0.000000   0.000000   0.000000   0.000004   0.000007   0.000026
    46  H    0.000000  -0.000000  -0.000000  -0.000003   0.000000   0.000023
    47  H    0.378525  -0.023185  -0.025023   0.000759  -0.000220   0.000026
    48  H    0.000000   0.000000  -0.000000  -0.000033   0.000002   0.000221
               7          8          9         10         11         12
     1  C   -0.000064   0.013684   0.011249   0.006859  -0.001429  -0.005051
     2  H   -0.000004   0.012887   0.000127  -0.000371  -0.000121  -0.000118
     3  H    0.000004  -0.009516  -0.002332   0.000286   0.000473   0.000639
     4  C   -0.036220  -0.038108  -0.099607  -0.040664   0.015587   0.000036
     5  H   -0.013339  -0.065901   0.001486   0.001438  -0.000745  -0.100698
     6  O    0.276242  -0.057540   0.004317  -0.009540  -0.000497  -0.037908
     7  H    0.357648   0.011011  -0.000387  -0.000714   0.000191   0.007943
     8  C    0.011011   5.474504   0.516546   0.303393  -0.046173  -0.009609
     9  H   -0.000387   0.516546   0.573967  -0.053362  -0.007511   0.012363
    10  O   -0.000714   0.303393  -0.053362   7.982819   0.294479  -0.023693
    11  H    0.000191  -0.046173  -0.007511   0.294479   0.430017  -0.001741
    12  C    0.007943  -0.009609   0.012363  -0.023693  -0.001741   5.544520
    13  H   -0.001112   0.013203   0.002507   0.015380  -0.001095   0.430795
    14  C   -0.000763   0.013807  -0.127855  -0.062700   0.002932  -0.090139
    15  H    0.000072  -0.042827   0.010216  -0.000027   0.003126   0.000216
    16  O    0.000152  -0.030375   0.005318   0.008481  -0.000016   0.251045
    17  N    0.005136   0.000812  -0.000636  -0.000084   0.000011   0.224109
    18  C   -0.001051  -0.003227  -0.000155  -0.000195   0.000010  -0.094269
    19  H    0.000226   0.001138  -0.000037   0.000003   0.000002   0.009466
    20  C   -0.001734  -0.001444   0.000048   0.000010  -0.000002   0.017364
    21  H   -0.000017  -0.000010   0.000001   0.000000  -0.000000   0.000403
    22  C    0.000413  -0.000008  -0.000006  -0.000004   0.000000  -0.020856
    23  H   -0.000009   0.000000  -0.000000  -0.000000   0.000000  -0.000112
    24  H    0.000474   0.000028  -0.000000  -0.000000   0.000000   0.002160
    25  C    0.000872  -0.000387   0.000002  -0.000018  -0.000001  -0.000818
    26  C   -0.001896  -0.004140  -0.000103  -0.000492  -0.000038  -0.077127
    27  H    0.000058  -0.000121  -0.000009  -0.000130   0.000005  -0.002418
    28  C    0.000018   0.000006   0.000000   0.000000  -0.000000   0.000819
    29  O    0.000004   0.000000   0.000000  -0.000000  -0.000000   0.000500
    30  N    0.000000  -0.000000  -0.000000  -0.000000  -0.000000   0.000025
    31  H   -0.000000  -0.000000   0.000000  -0.000000  -0.000000  -0.000004
    32  H   -0.000000  -0.000000   0.000000   0.000000  -0.000000  -0.000011
    33  C    0.003176   0.000575   0.000014  -0.000628   0.000040   0.000086
    34  C   -0.010738   0.000026  -0.000015   0.000018   0.000000  -0.001720
    35  C    0.000401  -0.000162   0.000001   0.000000  -0.000000  -0.001640
    36  C   -0.000013  -0.000000   0.000000  -0.000000  -0.000000  -0.000037
    37  C   -0.000553   0.000004   0.000000   0.000000  -0.000000  -0.000634
    38  O    0.053581  -0.000109  -0.000002  -0.000001  -0.000000   0.001235
    39  S   -0.000942  -0.000047  -0.000002  -0.000002  -0.000001   0.000362
    40  H   -0.000397  -0.000044  -0.000000   0.000011  -0.000001   0.000017
    41  H   -0.010938  -0.000849   0.000016   0.001963  -0.000132  -0.000277
    42  H    0.000001   0.000000  -0.000000   0.000000  -0.000000   0.000002
    43  H    0.000001   0.000000   0.000000   0.000000   0.000000   0.000002
    44  H    0.000000   0.000000  -0.000000   0.000000   0.000000   0.000000
    45  H   -0.000202  -0.000000   0.000000  -0.000000  -0.000000  -0.000069
    46  H   -0.000109  -0.000000  -0.000000  -0.000000   0.000000   0.000126
    47  H    0.000026  -0.013831   0.000461   0.000228   0.000157  -0.001003
    48  H    0.000319  -0.000020   0.000002   0.000004  -0.000002   0.000008
              13         14         15         16         17         18
     1  C    0.000060   0.166785  -0.069186  -0.028456   0.000017  -0.000984
     2  H    0.000012  -0.050207  -0.007245   0.000808  -0.000053   0.000005
     3  H    0.000105  -0.042096  -0.003345   0.005053  -0.000034   0.000021
     4  C   -0.084211   0.122816  -0.007624  -0.058407   0.009634  -0.009856
     5  H    0.006761   0.014054   0.000010   0.002079  -0.011538  -0.001582
     6  O    0.009925   0.006664   0.000116   0.005118  -0.003086   0.003534
     7  H   -0.001112  -0.000763   0.000072   0.000152   0.005136  -0.001051
     8  C    0.013203   0.013807  -0.042827  -0.030375   0.000812  -0.003227
     9  H    0.002507  -0.127855   0.010216   0.005318  -0.000636  -0.000155
    10  O    0.015380  -0.062700  -0.000027   0.008481  -0.000084  -0.000195
    11  H   -0.001095   0.002932   0.003126  -0.000016   0.000011   0.000010
    12  C    0.430795  -0.090139   0.000216   0.251045   0.224109  -0.094269
    13  H    0.500799  -0.010466   0.005851  -0.029933  -0.047977   0.012778
    14  C   -0.010466   5.426436   0.418406   0.185978   0.011857  -0.000391
    15  H    0.005851   0.418406   0.601443  -0.036962  -0.001003   0.000370
    16  O   -0.029933   0.185978  -0.036962   8.067593  -0.075150   0.017940
    17  N   -0.047977   0.011857  -0.001003  -0.075150   6.361733   0.322736
    18  C    0.012778  -0.000391   0.000370   0.017940   0.322736   5.090629
    19  H    0.001040  -0.001991   0.000092   0.006501  -0.042647   0.414838
    20  C    0.001075   0.000461   0.000013  -0.001538  -0.033140   0.400009
    21  H    0.000012  -0.000002  -0.000000  -0.000071   0.004077  -0.032728
    22  C   -0.000767  -0.000023  -0.000001   0.001086  -0.056991   0.027250
    23  H   -0.000018  -0.000000  -0.000000   0.000001  -0.001811   0.004933
    24  H    0.000002  -0.000000  -0.000000   0.000016   0.013625   0.008485
    25  C    0.010483   0.000181   0.000033  -0.002861  -0.003421   0.013180
    26  C   -0.020732   0.000351  -0.000455   0.003257   0.329365  -0.163827
    27  H   -0.001301   0.000039  -0.000020   0.000667  -0.032726   0.008166
    28  C    0.000262  -0.000004   0.000000  -0.000029   0.005864   0.001752
    29  O   -0.000056  -0.000000   0.000000  -0.000001  -0.000067   0.000473
    30  N   -0.000001   0.000000  -0.000000  -0.000000  -0.000319   0.000181
    31  H    0.000000  -0.000000   0.000000   0.000000   0.000016  -0.000009
    32  H    0.000000  -0.000000  -0.000000  -0.000000   0.000026   0.000129
    33  C   -0.000362  -0.000065   0.000000   0.000001   0.000177  -0.000097
    34  C    0.000293   0.000033  -0.000000   0.000034  -0.003278   0.003438
    35  C   -0.000459  -0.000006  -0.000000  -0.000044  -0.020258  -0.000121
    36  C    0.000000  -0.000000  -0.000000  -0.000000  -0.000257   0.000474
    37  C    0.000028  -0.000002   0.000000   0.000001  -0.001443   0.002820
    38  O   -0.000222   0.000033  -0.000000   0.000015   0.006812   0.006614
    39  S    0.001936   0.000029   0.000000   0.000009   0.000988  -0.000035
[...]
      4        6           0.002418944   -0.003470919   -0.000281573
      5        1           0.004914212    0.005206364   -0.000358294
      6        8           0.001570738   -0.006690874   -0.012620920
      7        1          -0.007708142    0.004551971    0.003345821
      8        6          -0.011888170   -0.005234268   -0.006587038
      9        1           0.000604934    0.005573446   -0.002688103
     10        8           0.006604182   -0.001470256   -0.001372847
     11        1          -0.001599067    0.001675869    0.000503761
     12        6           0.008538690   -0.004690305    0.007131397
     13        1          -0.004287657   -0.000310102   -0.003294699
     14        6           0.002135598    0.000706244    0.008112560
     15        1          -0.002900560    0.002268547    0.001315707
     16        8          -0.006150081    0.003114173    0.006658067
     17        7           0.012427061    0.001688651    0.002840964
     18        6          -0.004808491   -0.003799596   -0.000616556
     19        1           0.004750757    0.000523938    0.002039726
     20        6          -0.001723401   -0.009626212    0.003646211
     21        1           0.000045662   -0.003178412   -0.000126814
     22        6          -0.000063546    0.010470375   -0.006109238
     23        1          -0.001679753    0.001162061   -0.001509595
     24        1          -0.003952572    0.003184135    0.007788765
     25        6          -0.012365241    0.003944554   -0.003855240
     26        6           0.001163448    0.002407189    0.003168708
     27        1           0.003232173   -0.000502099    0.002857446
     28        6          -0.016088838   -0.004070332   -0.002749877
     29        8           0.002271659    0.001100274   -0.003998040
     30        7           0.025593358   -0.002192248   -0.003633996
     31        1          -0.002775014   -0.005356143    0.008443855
     32        1          -0.002551843    0.006475463    0.006895734
     33        6          -0.002303305   -0.011192692   -0.001077130
     34        6           0.004529849   -0.030979161    0.016730789
     35        6          -0.013008029    0.002402998   -0.022151457
     36        6          -0.002337635    0.001380215   -0.001799300
     37        6           0.007475067   -0.008804728    0.009355344
     38        8           0.002233237    0.011371562   -0.009932924
     39       16           0.014020140    0.014377121    0.007536347
     40        1           0.001786327    0.000498960    0.000730934
     41        1           0.001197306    0.001327223    0.003807808
     42        1          -0.004250858    0.000313783   -0.003541693
     43        1           0.000450639    0.003996276   -0.002247279
     44        1          -0.001517861    0.002682451   -0.000065856
     45        1           0.004081662   -0.003608389   -0.004951499
     46        1          -0.000470711    0.004050609   -0.000717381
     47        1           0.000641913   -0.001859424   -0.000449803
     48        1          -0.002729972    0.004407523   -0.004799918
 -------------------------------------------------------------------
 Cartesian Forces:  Max     0.030979161 RMS     0.006707650
 Leave Link  716 at Sun Apr  9 11:13:53 2023, MaxMem=  2684354560 cpu:               0.9 elap:               0.1
 (Enter /opt/gaussian/g16/l103.exe)

 GradGradGradGradGradGradGradGradGradGradGradGradGradGradGradGradGradGrad
 Berny optimization.
 Search for a local minimum.
 Step number   1 out of a maximum of    2
 All quantities printed in internal units (Hartrees-Bohrs-Radians)
 Second derivative matrix not updated -- first step.
 ITU=  0
     Eigenvalues ---    0.00045   0.00100   0.00112   0.00138   0.00172
     Eigenvalues ---    0.00306   0.00346   0.00397   0.00485   0.00540
     Eigenvalues ---    0.00641   0.00701   0.00804   0.00984   0.01030
     Eigenvalues ---    0.01093   0.01199   0.01374   0.01407   0.01570
     Eigenvalues ---    0.01731   0.02010   0.02372   0.02463   0.02596
     Eigenvalues ---    0.03047   0.03225   0.03670   0.04006   0.04221
     Eigenvalues ---    0.04452   0.04623   0.04814   0.05004   0.05132
     Eigenvalues ---    0.05163   0.05441   0.05482   0.05775   0.06031
     Eigenvalues ---    0.06105   0.06300   0.06698   0.07001   0.07110
     Eigenvalues ---    0.07169   0.07553   0.07743   0.08198   0.08377
     Eigenvalues ---    0.08497   0.08775   0.09383   0.09689   0.09922
     Eigenvalues ---    0.10953   0.11296   0.11523   0.11949   0.12096
     Eigenvalues ---    0.13016   0.13127   0.13590   0.13733   0.13947
     Eigenvalues ---    0.14184   0.14410   0.15348   0.15747   0.16095
     Eigenvalues ---    0.16651   0.17762   0.17905   0.18721   0.19392
     Eigenvalues ---    0.20671   0.21106   0.21918   0.22381   0.26496
     Eigenvalues ---    0.26619   0.27777   0.28934   0.29247   0.33053
     Eigenvalues ---    0.33372   0.33709   0.34973   0.36914   0.37545
     Eigenvalues ---    0.37545   0.37545   0.37545   0.37545   0.41979
     Eigenvalues ---    0.44209   0.47831   0.48634   0.54277   0.59333
     Eigenvalues ---    0.60676   0.60844   0.67225   0.72237   0.73457
     Eigenvalues ---    0.79067   0.79636   0.83588   0.87758   0.89679
     Eigenvalues ---    0.90300   0.91961   0.92983   0.94435   0.95244
     Eigenvalues ---    0.97456   0.98030   0.98997   1.02259   1.03044
     Eigenvalues ---    1.05818   1.07459   1.08643   1.09377   1.12017
     Eigenvalues ---    1.13420   1.17954   1.22204   1.28482   1.31727
     Eigenvalues ---    1.33690   1.34474   1.36286   1.56377   1.74493
     Eigenvalues ---    1.76636   1.91548   2.37140
 Quadratic step=3.371D+00 exceeds max=3.000D-01 adjusted using Lamda=-3.475D-02.
 Angle between NR and scaled steps=  60.45 degrees.
 Angle between quadratic step and forces=  56.80 degrees.
 Linear search not attempted -- first point.
 Variable       Old X    -DE/DX   Delta X   Delta X   Delta X     New X
                                 (Linear)    (Quad)   (Total)
    X1        6.55311  -0.00603   0.00000  -0.02469  -0.02469   6.52842
    Y1       -6.88233   0.01417   0.00000   0.03101   0.03101  -6.85132
    Z1       -1.32725  -0.00102   0.00000  -0.00575  -0.00575  -1.33300
    X2        6.72008  -0.00028   0.00000  -0.02122  -0.02122   6.69886
    Y2       -7.18978  -0.00375   0.00000  -0.01336  -0.01336  -7.20315
    Z2       -3.35048  -0.00124   0.00000  -0.00428  -0.00428  -3.35476
    X3        8.25288   0.00079   0.00000  -0.03002  -0.03002   8.22286
    Y3       -7.55082  -0.00424   0.00000  -0.01986  -0.01986  -7.57068
    Z3       -0.39079   0.00089   0.00000  -0.01084  -0.01084  -0.40163
    X4        3.05050   0.00242   0.00000  -0.00044  -0.00044   3.05006
    Y4       -2.34793  -0.00347   0.00000   0.00271   0.00271  -2.34522
    Z4        1.85042  -0.00028   0.00000  -0.01495  -0.01495   1.83547
    X5        1.76326   0.00491   0.00000   0.02492   0.02492   1.78818
    Y5       -4.00192   0.00521   0.00000   0.00861   0.00861  -3.99331
    Z5        1.79482  -0.00036   0.00000  -0.02427  -0.02427   1.77054
    X6        2.53982   0.00157   0.00000  -0.03765  -0.03765   2.50217
    Y6       -0.76378  -0.00669   0.00000   0.00476   0.00476  -0.75901
    Z6        3.87658  -0.01262   0.00000  -0.04579  -0.04579   3.83080
    X7        0.79361  -0.00771   0.00000  -0.04658  -0.04658   0.74703
    Y7       -0.16744   0.00455   0.00000   0.02233   0.02233  -0.14511
    Z7        3.79071   0.00335   0.00000   0.00202   0.00202   3.79273
    X8        5.80736  -0.01189   0.00000  -0.01908  -0.01908   5.78828
    Y8       -3.32559  -0.00523   0.00000   0.01102   0.01102  -3.31457
    Z8        1.95971  -0.00659   0.00000  -0.01439  -0.01439   1.94531
    X9        5.95657   0.00060   0.00000  -0.00008  -0.00008   5.95648
    Y9       -4.99271   0.00557   0.00000   0.02924   0.02924  -4.96347
    Z9        3.20279  -0.00269   0.00000  -0.01624  -0.01624   3.18655
   X10        7.28768   0.00660   0.00000   0.01853   0.01853   7.30621
   Y10       -1.30696  -0.00147   0.00000  -0.00104  -0.00104  -1.30800
   Z10        2.81905  -0.00137   0.00000  -0.03053  -0.03053   2.78852
   X11        9.02163  -0.00160   0.00000   0.01250   0.01250   9.03413
   Y11       -1.85661   0.00168   0.00000  -0.00704  -0.00704  -1.86365
   Z11        2.90550   0.00050   0.00000  -0.01711  -0.01711   2.88839
   X12        3.10712   0.00854   0.00000   0.00985   0.00985   3.11697
   Y12       -1.11615  -0.00469   0.00000   0.00750   0.00750  -1.10865
   Z12       -0.81472   0.00713   0.00000   0.01909   0.01909  -0.79564
   X13        4.22378  -0.00429   0.00000  -0.00945  -0.00945   4.21433
   Y13        0.62488  -0.00031   0.00000   0.01366   0.01366   0.63854
   Z13       -0.64082  -0.00329   0.00000  -0.02426  -0.02426  -0.66508
   X14        6.35161   0.00214   0.00000  -0.01491  -0.01491   6.33670
   Y14       -4.05071   0.00071   0.00000   0.01880   0.01880  -4.03191
   Z14       -0.85362   0.00811   0.00000   0.01412   0.01412  -0.83950
   X15        8.14609  -0.00290   0.00000  -0.03028  -0.03028   8.11581
   Y15       -3.17689   0.00227   0.00000   0.03935   0.03935  -3.13753
   Z15       -1.42374   0.00132   0.00000   0.01082   0.01082  -1.41292
   X16        4.35814  -0.00615   0.00000  -0.03149  -0.03149   4.32665
   Y16       -2.94313   0.00311   0.00000   0.00123   0.00123  -2.94189
   Z16       -2.33889   0.00666   0.00000   0.02958   0.02958  -2.30930
   X17        0.67134   0.01243   0.00000   0.01271   0.01271   0.68405
   Y17       -0.47523   0.00169   0.00000   0.00731   0.00731  -0.46793
   Z17       -1.94722   0.00284   0.00000   0.02343   0.02343  -1.92379
   X18       -1.22841  -0.00481   0.00000   0.00946   0.00946  -1.21895
   Y18       -2.21522  -0.00380   0.00000  -0.00631  -0.00631  -2.22153
   Z18       -2.01132  -0.00062   0.00000   0.01408   0.01408  -1.99724
   X19       -0.85804   0.00475   0.00000   0.05901   0.05901  -0.79904
   Y19       -4.07532   0.00052   0.00000   0.00486   0.00486  -4.07047
   Z19       -1.27511   0.00204   0.00000   0.02315   0.02315  -1.25197
   X20       -3.50604  -0.00172   0.00000  -0.00227  -0.00227  -3.50830
   Y20       -1.62094  -0.00963   0.00000  -0.02851  -0.02851  -1.64945
   Z20       -3.00076   0.00365   0.00000   0.00674   0.00674  -2.99402
   X21       -5.01464   0.00005   0.00000   0.01635   0.01635  -4.99829
   Y21       -2.98651  -0.00318   0.00000  -0.05360  -0.05360  -3.04010
   Z21       -2.95373  -0.00013   0.00000  -0.00314  -0.00314  -2.95687
   X22       -3.95191  -0.00006   0.00000  -0.01867  -0.01867  -3.97059
   Y22        0.79529   0.01047   0.00000  -0.00791  -0.00791   0.78738
   Z22       -3.96451  -0.00611   0.00000  -0.00846  -0.00846  -3.97297
   X23       -5.71435  -0.00168   0.00000  -0.01190  -0.01190  -5.72625
   Y23        1.20779   0.00116   0.00000  -0.00457  -0.00457   1.20322
   Z23       -4.89744  -0.00151   0.00000  -0.02734  -0.02734  -4.92478
   X24       -5.17637  -0.00395   0.00000  -0.02562  -0.02562  -5.20199
   Y24        2.40954   0.00318   0.00000  -0.00498  -0.00498   2.40456
   Z24       -1.32256   0.00779   0.00000   0.03882   0.03882  -1.28374
   X25       -1.87869  -0.01237   0.00000  -0.03145  -0.03145  -1.91014
   Y25        2.45919   0.00394   0.00000   0.00680   0.00680   2.46599
   Z25       -4.17492  -0.00386   0.00000   0.02792   0.02792  -4.14700
   X26        0.34285   0.00116   0.00000  -0.01474  -0.01474   0.32811
   Y26        1.81807   0.00241   0.00000   0.01477   0.01477   1.83284
   Z26       -3.04714   0.00317   0.00000   0.03813   0.03813  -3.00901
   X27        1.90580   0.00323   0.00000   0.00551   0.00551   1.91131
   Y27        3.12649  -0.00050   0.00000   0.00044   0.00044   3.12694
   Z27       -3.06350   0.00286   0.00000   0.04853   0.04853  -3.01497
   X28       -2.18859  -0.01609   0.00000  -0.01308  -0.01308  -2.20167
   Y28        5.02080  -0.00407   0.00000  -0.00852  -0.00852   5.01228
   Z28       -5.39002  -0.00275   0.00000   0.02500   0.02500  -5.36502
   X29       -0.92993   0.00227   0.00000   0.02467   0.02467  -0.90527
   Y29        6.81317   0.00110   0.00000  -0.01372  -0.01372   6.79945
   Z29       -4.79631  -0.00400   0.00000  -0.03689  -0.03689  -4.83320
   X30       -4.22710   0.02559   0.00000   0.07471   0.07471  -4.15239
   Y30        5.16286  -0.00219   0.00000  -0.01562  -0.01562   5.14724
   Z30       -7.12660  -0.00363   0.00000  -0.00899  -0.00899  -7.13560
   X31       -4.06759  -0.00278   0.00000   0.02361   0.02361  -4.04397
   Y31        6.73815  -0.00536   0.00000  -0.00484  -0.00484   6.73330
   Z31       -8.23878   0.00844   0.00000   0.03335   0.03335  -8.20543
   X32       -4.39300  -0.00255   0.00000   0.00295   0.00295  -4.39005
   Y32        3.57937   0.00648   0.00000  -0.00676  -0.00676   3.57260
   Z32       -8.22256   0.00690   0.00000   0.02326   0.02326  -8.19930
   X33        1.23920  -0.00230   0.00000  -0.01286  -0.01286   1.22634
   Y33        4.05164  -0.01119   0.00000  -0.02715  -0.02715   4.02449
   Z33        7.21117  -0.00108   0.00000   0.01823   0.01823   7.22940
   X34       -2.06776   0.00453   0.00000   0.03447   0.03447  -2.03329
   Y34        3.82571  -0.03098   0.00000  -0.01965  -0.01965   3.80606
   Z34        3.18935   0.01673   0.00000  -0.01345  -0.01345   3.17590
   X35       -3.44864  -0.01301   0.00000   0.00059   0.00059  -3.44805
   Y35        4.97877   0.00240   0.00000  -0.00659  -0.00659   4.97218
   Z35        1.31979  -0.02215   0.00000  -0.03460  -0.03460   1.28519
   X36       -7.38147  -0.00234   0.00000  -0.01860  -0.01860  -7.40007
   Y36        5.82694   0.00138   0.00000   0.00661   0.00661   5.83355
   Z36       -1.15875  -0.00180   0.00000  -0.00532  -0.00532  -1.16407
   X37       -5.72361   0.00748   0.00000  -0.00460  -0.00460  -5.72821
   Y37        3.91452  -0.00880   0.00000  -0.01380  -0.01380   3.90071
   Z37        0.17119   0.00936   0.00000   0.01503   0.01503   0.18622
   X38       -2.22537   0.00223   0.00000   0.05423   0.05423  -2.17114
   Y38        1.56929   0.01137   0.00000  -0.02307  -0.02307   1.54622
   Z38        3.96684  -0.00993   0.00000  -0.07451  -0.07451   3.89233
   X39        0.08127   0.01402   0.00000   0.02964   0.02964   0.11092
   Y39        5.93266   0.01438   0.00000   0.02435   0.02435   5.95701
   Z39        4.63262   0.00754   0.00000   0.03888   0.03888   4.67150
   X40       -0.37935   0.00179   0.00000  -0.00493  -0.00493  -0.38428
   Y40        3.29818   0.00050   0.00000  -0.01761  -0.01761   3.28056
   Z40        8.23878   0.00073   0.00000   0.02785   0.02785   8.26663
   X41        2.32692   0.00120   0.00000   0.02898   0.02898   2.35589
   Y41        2.48164   0.00133   0.00000  -0.00994  -0.00994   2.47171
   Z41        6.44865   0.00381   0.00000   0.05881   0.05881   6.50746
   X42       -8.02726  -0.00425   0.00000  -0.05458  -0.05458  -8.08185
   Y42        5.09936   0.00031   0.00000   0.01594   0.01594   5.11530
   Z42       -2.96354  -0.00354   0.00000  -0.00724  -0.00724  -2.97078
   X43       -6.33271   0.00045   0.00000  -0.01036  -0.01036  -6.34307
   Y43        7.55082   0.00400   0.00000   0.01029   0.01029   7.56112
   Z43       -1.51786  -0.00225   0.00000  -0.03081  -0.03081  -1.54867
   X44       -9.02163  -0.00152   0.00000  -0.00795  -0.00795  -9.02958
   Y44        6.28196   0.00268   0.00000   0.04686   0.04686   6.32881
   Z44       -0.00934  -0.00007   0.00000  -0.00072  -0.00072  -0.01006
   X45       -6.80679   0.00408   0.00000   0.03110   0.03110  -6.77569
   Y45        2.83987  -0.00361   0.00000  -0.05258  -0.05258   2.78729
   Z45        1.58116  -0.00495   0.00000  -0.00511  -0.00511   1.57605
   X46       -2.85306  -0.00047   0.00000  -0.02856  -0.02856  -2.88162
   Y46        6.84024   0.00405   0.00000   0.01979   0.01979   6.86003
   Z46        0.74066  -0.00072   0.00000  -0.01408  -0.01408   0.72658
   X47        4.89426   0.00064   0.00000  -0.01167  -0.01167   4.88259
   Y47       -7.86083  -0.00186   0.00000   0.00507   0.00507  -7.85576
   Z47       -0.59682  -0.00045   0.00000  -0.01052  -0.01052  -0.60734
   X48        2.43192  -0.00273   0.00000  -0.04515  -0.04515   2.38677
   Y48        5.14842   0.00441   0.00000   0.04041   0.04041   5.18883
   Z48        8.48289  -0.00480   0.00000  -0.01654  -0.01654   8.46635
         Item               Value     Threshold  Converged?
 Maximum Force            0.030979     0.000450     NO 
 RMS     Force            0.006708     0.000300     NO 
 Maximum Displacement     0.074705     0.001800     NO 
 RMS     Displacement     0.025043     0.001200     NO 
 Predicted change in Energy=-8.192315D-03
 GradGradGradGradGradGradGradGradGradGradGradGradGradGradGradGradGradGrad

 Leave Link  103 at Sun Apr  9 11:13:53 2023, MaxMem=  2684354560 cpu:               1.7 elap:               0.1
 (Enter /opt/gaussian/g16/l9999.exe)

 Test job not archived.
 1\1\GINC-JULIO-SYS\Force\RM062X\def2TZVP\C16H24N2O5S1\JVELAZQUEZ\09-Ap
 r-2023\0\\#P M062X/Def2TZVP scf=(direct,conver=8) EmpiricalDispersion=
 GD3 NoSymm Force pop=(NBORead) Charge Prop=(Field,Read)\\Gaussian run 
 using SANDER external interface, route from template gau_job.tpl\\0,1\
 C,3.4677565727,-3.6419705607,-0.7023500065\H,3.5561131004,-3.804668808
 8,-1.7729980015\H,4.3672365205,-3.9957232227,-0.2067946333\C,1.6142552
 186,-1.2424704881,0.979198473\H,0.9330792024,-2.1177269986,0.949775196
 3\O,1.3440160104,-0.4041730353,2.0513997124\H,0.4199614273,-0.08860586
 41,2.0059559629\C,3.0731245378,-1.7598242234,1.0370320684\H,3.15207872
 38,-2.6420269389,1.6948410951\O,3.8564744526,-0.6916151473,1.491778716
 8\H,4.7740410382,-0.9824741572,1.5375248956\C,1.6442168328,-0.59063995
 76,-0.4311337558\H,2.2351288506,0.3306728572,-0.3391081424\C,3.3611285
 671,-2.1435414209,-0.4517162592\H,4.3107265338,-1.6811363265,-0.753411
 1136\O,2.3062277755,-1.5574370632,-1.2376853153\N,0.3552579734,-0.2514
 817543,-1.0304266206\C,-0.6500484034,-1.1722453531,-1.0643423215\H,-0.
 4540572754,-2.1565687796,-0.6747600896\C,-1.8553146174,-0.8577666941,-
 1.5879362943\H,-2.6536338349,-1.5803911976,-1.5630463409\C,-2.09126304
 8,0.4208485839,-2.0979275965\H,-3.0239049297,0.6391351401,-2.591614085
 6\H,-2.7392167039,1.2750757747,-0.6998697487\C,-0.9941619553,1.3013448
 179,-2.2092707659\C,0.1814307998,0.9620822117,-1.6124791014\H,1.008505
 7372,1.6544678813,-1.62113292\C,-1.1581529539,2.6568909533,-2.85227668
 62\O,-0.4921002768,3.6053740033,-2.5380993409\N,-2.2368827538,2.732068
 0577,-3.7712365452\H,-2.1524742998,3.5656732476,-4.3597744455\H,-2.324
 6762128,1.894118765,-4.3511927497\C,0.6557573961,2.1440356703,3.815987
 0556\C,-1.0942100208,2.0244792029,1.687731327\C,-1.8249394774,2.634650
 0064,0.6984010764\C,-3.9061039128,3.0834854677,-0.6131815308\C,-3.0288
 020545,2.0714723622,0.0905877347\O,-1.1776147749,0.8304318562,2.099160
 5576\S,0.0430080758,3.1394283085,2.4514744756\H,-0.2007438099,1.745319
 4589,4.3597744455\H,1.231350781,1.3132295188,3.4124798864\H,-4.2478455
 884,2.6984635756,-1.5682372101\H,-3.3511246942,3.9957232227,-0.8032174
 24\H,-4.7740410382,3.3242680927,-0.0049427771\H,-3.6019976509,1.502792
 3143,0.8367142105\H,-1.5097747315,3.6196980854,0.3919382814\H,2.589931
 4885,-4.1597739839,-0.3158235048\H,1.2869168394,2.7244268779,4.4889534
 762\\Version=ES64L-G16RevA.03\HF=-1507.8493719\RMSD=8.894e-09\RMSF=6.7
 08e-03\Dipole=0.687151,-2.7398271,-2.7850159\Quadrupole=10.6385141,-10
 .8063334,0.1678192,-5.7020269,11.8068835,-7.6940615\PG=C01 [X(C16H24N2
 O5S1)]\\@


 BREAD HAS TO MOLD IN ORDER TO GET PENICILLIN.
          -- JERRY BOATZ
 Job cpu time:       0 days  7 hours  5 minutes 17.3 seconds.
 Elapsed time:       0 days  0 hours 26 minutes 35.7 seconds.
 File lengths (MBytes):  RWF=    435 Int=      0 D2E=      0 Chk=     48 Scr=      1
 Normal termination of Gaussian 16 at Sun Apr  9 11:13:53 2023.
