 Entering Gaussian System, Link 0=g16
 Initial command:
 /opt/gaussian/g16/l1.exe "/opt/gaussian/scratch16/Gau-3408663.inp" -scrdir="/opt/gaussian/scratch16/"
 Entering Link 1 = /opt/gaussian/g16/l1.exe PID=   3408665.
  
 Copyright (c) 1988,1990,1992,1993,1995,1998,2003,2009,2016,
            Gaussian, Inc.  All Rights Reserved.
  
 This is part of the Gaussian(R) 16 program.  It is based on
 the Gaussian(R) 09 system (copyright 2009, Gaussian, Inc.),
 the Gaussian(R) 03 system (copyright 2003, Gaussian, Inc.),
 the Gaussian(R) 98 system (copyright 1998, Gaussian, Inc.),
 the Gaussian(R) 94 system (copyright 1995, Gaussian, Inc.),
 the Gaussian 92(TM) system (copyright 1992, Gaussian, Inc.),
 the Gaussian 90(TM) system (copyright 1990, Gaussian, Inc.),
 the Gaussian 88(TM) system (copyright 1988, Gaussian, Inc.),
 the Gaussian 86(TM) system (copyright 1986, Carnegie Mellon
 University), and the Gaussian 82(TM) system (copyright 1983,
 Carnegie Mellon University). Gaussian is a federally registered
 trademark of Gaussian, Inc.
  
 This software contains proprietary and confidential information,
 including trade secrets, belonging to Gaussian, Inc.
  
 This software is provided under written license and may be
 used, copied, transmitted, or stored only in accord with that
 written license.
  
 The following legend is applicable only to US Government
 contracts under FAR:
  
                    RESTRICTED RIGHTS LEGEND
  
 Use, reproduction and disclosure by the US Government is
 subject to restrictions as set forth in subparagraphs (a)
 and (c) of the Commercial Computer Software - Restricted
 Rights clause in FAR 52.227-19.
  
 Gaussian, Inc.
 340 Quinnipiac St., Bldg. 40, Wallingford CT 06492
  
  
 ---------------------------------------------------------------
 Warning -- This program may not be used in any manner that
 competes with the business of Gaussian, Inc. or will provide
 assistance to any competitor of Gaussian, Inc.  The licensee
 of this program is prohibited from giving any competitor of
 Gaussian, Inc. access to this program.  By using this program,
 the user acknowledges that Gaussian, Inc. is engaged in the
 business of creating and licensing software in the field of
 computational chemistry and represents and warrants to the
 licensee that it is not a competitor of Gaussian, Inc. and that
 it will not use this program in any manner prohibited above.
 ---------------------------------------------------------------
  

 Cite this work as:
 Gaussian 16, Revision A.03,
 M. J. Frisch, G. W. Trucks, H. B. Schlegel, G. E. Scuseria, 
 M. A. Robb, J. R. Cheeseman, G. Scalmani, V. Barone, 
 G. A. Petersson, H. Nakatsuji, X. Li, M. Caricato, A. V. Marenich, 
 J. Bloino, B. G. Janesko, R. Gomperts, B. Mennucci, H. P. Hratchian, 
 J. V. Ortiz, A. F. Izmaylov, J. L. Sonnenberg, D. Williams-Young, 
 F. Ding, F. Lipparini, F. Egidi, J. Goings, B. Peng, A. Petrone, 
 T. Henderson, D. Ranasinghe, V. G. Zakrzewski, J. Gao, N. Rega, 
 G. Zheng, W. Liang, M. Hada, M. Ehara, K. Toyota, R. Fukuda, 
 J. Hasegawa, M. Ishida, T. Nakajima, Y. Honda, O. Kitao, H. Nakai, 
 T. Vreven, K. Throssell, J. A. Montgomery, Jr., J. E. Peralta, 
 F. Ogliaro, M. J. Bearpark, J. J. Heyd, E. N. Brothers, K. N. Kudin, 
 V. N. Staroverov, T. A. Keith, R. Kobayashi, J. Normand, 
 K. Raghavachari, A. P. Rendell, J. C. Burant, S. S. Iyengar, 
 J. Tomasi, M. Cossi, J. M. Millam, M. Klene, C. Adamo, R. Cammi, 
 J. W. Ochterski, R. L. Martin, K. Morokuma, O. Farkas, 
 J. B. Foresman, and D. J. Fox, Gaussian, Inc., Wallingford CT, 2016.
 
 ******************************************
 Gaussian 16:  ES64L-G16RevA.03 25-Dec-2016
                 9-Apr-2023 
 ******************************************
 %chk=26.chk
 %NProcShared=16
 Will use up to   16 processors via shared memory.
 %mem=20GB
 ----------------------------------------------------------------------
 #P M062X/Def2TZVP scf=(direct,conver=8) EmpiricalDispersion=GD3 NoSymm
  Force pop=(NBORead) Charge Prop=(Field,Read)
 ----------------------------------------------------------------------
 1/10=7,18=10,28=-2,30=1,38=1,125=101/1,3;
 2/12=2,15=1,17=6,18=5,29=2,40=1/2;
 3/5=44,7=101,11=2,25=1,30=1,71=1,74=-55,124=31/1,2,3;
 4//1;
 5/5=2,6=8,38=5/2;
 6/7=2,8=2,9=2,10=2,14=2,15=1,28=1,40=2/1,2,7;
 7/7=1,16=-2,29=1,30=1/1,2,3,16;
 1/10=7,18=10,28=-2,30=1/3;
 99/12=1/99;
 Leave Link    1 at Sun Apr  9 10:48:11 2023, MaxMem=  2684354560 cpu:               0.9 elap:               0.1
 (Enter /opt/gaussian/g16/l101.exe)
 ----------------------------------------------------------------------
 Gaussian run using SANDER external interface, route from template gau_
 job.tpl
 ----------------------------------------------------------------------
 Symbolic Z-matrix:
 Charge =  0 Multiplicity = 1
 C                     3.46661  -3.64311  -0.70353 
 H                     3.55468  -3.80627  -1.77418 
 H                     4.36625  -3.99706  -0.20816 
 C                     1.61359  -1.24213   0.97901 
 H                     0.93211  -2.11703   0.94876 
 O                     1.34443  -0.40398   2.05068 
 H                     0.42025  -0.08687   2.00421 
 C                     3.07233  -1.76071   1.03605 
 H                     3.15067  -2.643     1.69378 
 O                     3.85572  -0.69266   1.49028 
 H                     4.77294  -0.98408   1.53776 
 C                     1.64268  -0.59033  -0.43169 
 H                     2.23532   0.32986  -0.34009 
 C                     3.36     -2.14458  -0.4527 
 H                     4.3099   -1.68275  -0.75448 
 O                     2.30452  -1.55772  -1.23827 
 N                     0.3545   -0.25294  -1.03402 
 C                    -0.64846  -1.17768  -1.07197 
 H                    -0.45452  -2.15727  -0.66798 
 C                    -1.85215  -0.86811  -1.60342 
 H                    -2.65148  -1.59022  -1.57358 
 C                    -2.07944   0.39905  -2.1352 
 H                    -3.01919   0.62684  -2.6081 
 H                    -2.76153   1.27832  -0.66805 
 C                    -0.99311   1.29277  -2.22058 
 C                     0.18173   0.95831  -1.61784 
 H                     1.00346   1.65898  -1.6108 
 C                    -1.15994   2.65308  -2.85594 
 O                    -0.49491   3.60148  -2.53635 
 N                    -2.23947   2.73168  -3.7734 
 H                    -2.15342   3.5668   -4.35934 
 H                    -2.32483   1.89534  -4.35588 
 C                     0.65606   2.14106   3.81597 
 C                    -1.09329   2.01874   1.68568 
 C                    -1.82529   2.63635   0.70312 
 C                    -3.90888   3.08961  -0.60807 
 C                    -3.03618   2.07602   0.09749 
 O                    -1.17121   0.82316   2.09268 
 S                     0.04539   3.1349    2.45053 
 H                    -0.20126   1.74382   4.35934 
 H                     1.23169   1.30973   3.41386 
 H                    -4.25751   2.70067  -1.56006 
 H                    -3.34882   3.99706  -0.80333 
 H                    -4.77294   3.33192   0.00188 
 H                    -3.60914   1.50808   0.84536 
 H                    -1.51808   3.62488   0.40315 
 H                     2.58881  -4.16088  -0.31691 
 H                     1.28689   2.72191   4.48885 
 
 ITRead=  0  0  0  0  0  0  0  0  0  0  0  0  0  0  0  0  0  0  0  0
 ITRead=  0  0  0  0  0  0  0  0  0  0  0  0  0  0  0  0  0  0  0  0
 ITRead=  0  0  0  0  0  0  0  0
 MicOpt= -1 -1 -1 -1 -1 -1 -1 -1 -1 -1 -1 -1 -1 -1 -1 -1 -1 -1 -1 -1
 MicOpt= -1 -1 -1 -1 -1 -1 -1 -1 -1 -1 -1 -1 -1 -1 -1 -1 -1 -1 -1 -1
 MicOpt= -1 -1 -1 -1 -1 -1 -1 -1
 NAtoms=     48 NQM=       48 NQMF=       0 NMMI=      0 NMMIF=      0
                NMic=       0 NMicF=      0.
                    Isotopes and Nuclear Properties:
 (Nuclear quadrupole moments (NQMom) in fm**2, nuclear magnetic moments (NMagM)
  in nuclear magnetons)

  Atom         1           2           3           4           5           6           7           8           9          10
 IAtWgt=          12           1           1          12           1          16           1          12           1          16
 AtmWgt=  12.0000000   1.0078250   1.0078250  12.0000000   1.0078250  15.9949146   1.0078250  12.0000000   1.0078250  15.9949146
 NucSpn=           0           1           1           0           1           0           1           0           1           0
 AtZEff=  -0.0000000  -0.0000000  -0.0000000  -0.0000000  -0.0000000  -0.0000000  -0.0000000  -0.0000000  -0.0000000  -0.0000000
 NQMom=    0.0000000   0.0000000   0.0000000   0.0000000   0.0000000   0.0000000   0.0000000   0.0000000   0.0000000   0.0000000
 NMagM=    0.0000000   2.7928460   2.7928460   0.0000000   2.7928460   0.0000000   2.7928460   0.0000000   2.7928460   0.0000000
 AtZNuc=   6.0000000   1.0000000   1.0000000   6.0000000   1.0000000   8.0000000   1.0000000   6.0000000   1.0000000   8.0000000

  Atom        11          12          13          14          15          16          17          18          19          20
 IAtWgt=           1          12           1          12           1          16          14          12           1          12
 AtmWgt=   1.0078250  12.0000000   1.0078250  12.0000000   1.0078250  15.9949146  14.0030740  12.0000000   1.0078250  12.0000000
 NucSpn=           1           0           1           0           1           0           2           0           1           0
 AtZEff=  -0.0000000  -0.0000000  -0.0000000  -0.0000000  -0.0000000  -0.0000000  -0.0000000  -0.0000000  -0.0000000  -0.0000000
 NQMom=    0.0000000   0.0000000   0.0000000   0.0000000   0.0000000   0.0000000   2.0440000   0.0000000   0.0000000   0.0000000
 NMagM=    2.7928460   0.0000000   2.7928460   0.0000000   2.7928460   0.0000000   0.4037610   0.0000000   2.7928460   0.0000000
 AtZNuc=   1.0000000   6.0000000   1.0000000   6.0000000   1.0000000   8.0000000   7.0000000   6.0000000   1.0000000   6.0000000

  Atom        21          22          23          24          25          26          27          28          29          30
 IAtWgt=           1          12           1           1          12          12           1          12          16          14
 AtmWgt=   1.0078250  12.0000000   1.0078250   1.0078250  12.0000000  12.0000000   1.0078250  12.0000000  15.9949146  14.0030740
 NucSpn=           1           0           1           1           0           0           1           0           0           2
 AtZEff=  -0.0000000  -0.0000000  -0.0000000  -0.0000000  -0.0000000  -0.0000000  -0.0000000  -0.0000000  -0.0000000  -0.0000000
 NQMom=    0.0000000   0.0000000   0.0000000   0.0000000   0.0000000   0.0000000   0.0000000   0.0000000   0.0000000   2.0440000
 NMagM=    2.7928460   0.0000000   2.7928460   2.7928460   0.0000000   0.0000000   2.7928460   0.0000000   0.0000000   0.4037610
 AtZNuc=   1.0000000   6.0000000   1.0000000   1.0000000   6.0000000   6.0000000   1.0000000   6.0000000   8.0000000   7.0000000

  Atom        31          32          33          34          35          36          37          38          39          40
 IAtWgt=           1           1          12          12          12          12          12          16          32           1
 AtmWgt=   1.0078250   1.0078250  12.0000000  12.0000000  12.0000000  12.0000000  12.0000000  15.9949146  31.9720718   1.0078250
 NucSpn=           1           1           0           0           0           0           0           0           0           1
 AtZEff=  -0.0000000  -0.0000000  -0.0000000  -0.0000000  -0.0000000  -0.0000000  -0.0000000  -0.0000000  -0.0000000  -0.0000000
 NQMom=    0.0000000   0.0000000   0.0000000   0.0000000   0.0000000   0.0000000   0.0000000   0.0000000   0.0000000   0.0000000
 NMagM=    2.7928460   2.7928460   0.0000000   0.0000000   0.0000000   0.0000000   0.0000000   0.0000000   0.0000000   2.7928460
 AtZNuc=   1.0000000   1.0000000   6.0000000   6.0000000   6.0000000   6.0000000   6.0000000   8.0000000  16.0000000   1.0000000

  Atom        41          42          43          44          45          46          47          48
 IAtWgt=           1           1           1           1           1           1           1           1
 AtmWgt=   1.0078250   1.0078250   1.0078250   1.0078250   1.0078250   1.0078250   1.0078250   1.0078250
 NucSpn=           1           1           1           1           1           1           1           1
 AtZEff=  -0.0000000  -0.0000000  -0.0000000  -0.0000000  -0.0000000  -0.0000000  -0.0000000  -0.0000000
 NQMom=    0.0000000   0.0000000   0.0000000   0.0000000   0.0000000   0.0000000   0.0000000   0.0000000
 NMagM=    2.7928460   2.7928460   2.7928460   2.7928460   2.7928460   2.7928460   2.7928460   2.7928460
 AtZNuc=   1.0000000   1.0000000   1.0000000   1.0000000   1.0000000   1.0000000   1.0000000   1.0000000
 Background charge distribution read from input stream:
 Leave Link  101 at Sun Apr  9 10:48:11 2023, MaxMem=  2684354560 cpu:               3.9 elap:               0.3
 (Enter /opt/gaussian/g16/l103.exe)

 GradGradGradGradGradGradGradGradGradGradGradGradGradGradGradGradGradGrad
 Berny optimization.
 Initialization pass.
 Trust Radius=3.00D-01 FncErr=1.00D-07 GrdErr=1.00D-07 EigMax=2.50D+02 EigMin=1.00D-04
 Number of steps in this run=      2 maximum allowed number of steps=      2.
 GradGradGradGradGradGradGradGradGradGradGradGradGradGradGradGradGradGrad

 Leave Link  103 at Sun Apr  9 10:48:11 2023, MaxMem=  2684354560 cpu:               0.3 elap:               0.0
 (Enter /opt/gaussian/g16/l202.exe)
 ---------------------------------------------------------------------------------------------------
                            Z-MATRIX (ANGSTROMS AND DEGREES)
   CD    Cent   Atom    N1       Length/X        N2       Alpha/Y        N3        Beta/Z          J
 ---------------------------------------------------------------------------------------------------
      1      1  C        0   3.466611         -3.643112         -0.703533
      2      2  H        0   3.554678         -3.806268         -1.774182
      3      3  H        0   4.366246         -3.997065         -0.208160
      4      4  C        0   1.613595         -1.242126          0.979006
      5      5  H        0   0.932110         -2.117025          0.948763
      6      6  O        0   1.344433         -0.403978          2.050683
      7      7  H        0   0.420249         -0.086867          2.004211
      8      8  C        0   3.072332         -1.760706          1.036046
      9      9  H        0   3.150673         -2.643004          1.693779
     10     10  O        0   3.855718         -0.692657          1.490285
     11     11  H        0   4.772945         -0.984077          1.537758
     12     12  C        0   1.642678         -0.590334         -0.431688
     13     13  H        0   2.235318          0.329857         -0.340086
     14     14  C        0   3.360000         -2.144579         -0.452700
     15     15  H        0   4.309902         -1.682755         -0.754482
     16     16  O        0   2.304516         -1.557720         -1.238270
     17     17  N        0   0.354503         -0.252938         -1.034020
     18     18  C        0  -0.648458         -1.177676         -1.071968
     19     19  H        0  -0.454517         -2.157273         -0.667980
     20     20  C        0  -1.852149         -0.868106         -1.603415
     21     21  H        0  -2.651477         -1.590222         -1.573581
     22     22  C        0  -2.079441          0.399053         -2.135195
     23     23  H        0  -3.019193          0.626840         -2.608099
     24     24  H        0  -2.761530          1.278316         -0.668050
     25     25  C        0  -0.993108          1.292769         -2.220585
     26     26  C        0   0.181730          0.958311         -1.617843
     27     27  H        0   1.003459          1.658975         -1.610798
     28     28  C        0  -1.159935          2.653081         -2.855943
     29     29  O        0  -0.494907          3.601477         -2.536347
     30     30  N        0  -2.239475          2.731678         -3.773404
     31     31  H        0  -2.153424          3.566802         -4.359337
     32     32  H        0  -2.324830          1.895342         -4.355883
     33     33  C        0   0.656064          2.141055          3.815975
     34     34  C        0  -1.093294          2.018741          1.685681
     35     35  C        0  -1.825289          2.636348          0.703115
     36     36  C        0  -3.908880          3.089607         -0.608072
     37     37  C        0  -3.036181          2.076023          0.097491
     38     38  O        0  -1.171209          0.823155          2.092681
     39     39  S        0   0.045395          3.134901          2.450528
     40     40  H        0  -0.201259          1.743821          4.359337
     41     41  H        0   1.231686          1.309730          3.413856
     42     42  H        0  -4.257508          2.700670         -1.560064
     43     43  H        0  -3.348819          3.997065         -0.803330
     44     44  H        0  -4.772945          3.331923          0.001875
     45     45  H        0  -3.609137          1.508085          0.845361
     46     46  H        0  -1.518081          3.624878          0.403150
     47     47  H        0   2.588808         -4.160883         -0.316913
     48     48  H        0   1.286892          2.721912          4.488851
 ---------------------------------------------------------------------------------------------------
                         Z-Matrix orientation:                         
 ---------------------------------------------------------------------
 Center     Atomic      Atomic             Coordinates (Angstroms)
 Number     Number       Type             X           Y           Z
 ---------------------------------------------------------------------
      1          6           0        3.466611   -3.643112   -0.703533
      2          1           0        3.554678   -3.806268   -1.774182
      3          1           0        4.366246   -3.997065   -0.208160
      4          6           0        1.613595   -1.242126    0.979006
      5          1           0        0.932110   -2.117025    0.948763
      6          8           0        1.344433   -0.403978    2.050683
      7          1           0        0.420249   -0.086867    2.004211
      8          6           0        3.072332   -1.760706    1.036046
      9          1           0        3.150673   -2.643004    1.693779
     10          8           0        3.855718   -0.692657    1.490285
     11          1           0        4.772945   -0.984077    1.537758
     12          6           0        1.642678   -0.590334   -0.431688
     13          1           0        2.235318    0.329857   -0.340086
     14          6           0        3.360000   -2.144579   -0.452700
     15          1           0        4.309902   -1.682755   -0.754482
     16          8           0        2.304516   -1.557720   -1.238270
     17          7           0        0.354503   -0.252938   -1.034020
     18          6           0       -0.648458   -1.177676   -1.071968
     19          1           0       -0.454517   -2.157273   -0.667980
     20          6           0       -1.852149   -0.868106   -1.603415
     21          1           0       -2.651477   -1.590222   -1.573581
     22          6           0       -2.079441    0.399053   -2.135195
     23          1           0       -3.019193    0.626840   -2.608099
     24          1           0       -2.761530    1.278316   -0.668050
     25          6           0       -0.993108    1.292769   -2.220585
     26          6           0        0.181730    0.958311   -1.617843
     27          1           0        1.003459    1.658975   -1.610798
     28          6           0       -1.159935    2.653081   -2.855943
     29          8           0       -0.494907    3.601477   -2.536347
     30          7           0       -2.239475    2.731678   -3.773404
     31          1           0       -2.153424    3.566802   -4.359337
     32          1           0       -2.324830    1.895342   -4.355883
     33          6           0        0.656064    2.141055    3.815975
     34          6           0       -1.093294    2.018741    1.685681
     35          6           0       -1.825289    2.636348    0.703115
     36          6           0       -3.908880    3.089607   -0.608072
     37          6           0       -3.036181    2.076023    0.097491
     38          8           0       -1.171209    0.823155    2.092681
     39         16           0        0.045395    3.134901    2.450528
     40          1           0       -0.201259    1.743821    4.359337
     41          1           0        1.231686    1.309730    3.413856
     42          1           0       -4.257508    2.700670   -1.560064
     43          1           0       -3.348819    3.997065   -0.803330
     44          1           0       -4.772945    3.331923    0.001875
     45          1           0       -3.609137    1.508085    0.845361
     46          1           0       -1.518081    3.624878    0.403150
     47          1           0        2.588808   -4.160883   -0.316913
     48          1           0        1.286892    2.721912    4.488851
 ---------------------------------------------------------------------
                    Distance matrix (angstroms):
                    1          2          3          4          5
     1  C    0.000000
     2  H    1.086585   0.000000
     3  H    1.086286   1.774111   0.000000
     4  C    3.468334   4.233518   4.071380   0.000000
     5  H    3.388616   4.140753   4.082439   1.109408   0.000000
     6  O    4.751983   5.575873   5.209990   1.386879   2.078166
     7  H    5.409166   6.159127   5.979559   1.951856   2.344678
     8  C    2.593269   3.509183   2.867675   1.549224   2.171436
     9  H    2.616704   3.680103   2.632199   2.199084   2.398693
    10  O    3.697219   4.521277   3.750262   2.364410   3.296900
    11  H    3.714884   4.518615   3.505957   3.218740   4.047530
    12  C    3.566524   3.974955   4.367334   1.554263   2.177461
    13  H    4.175244   4.572184   4.824988   2.144218   3.057240
    14  C    1.523117   2.132000   2.122271   2.431899   2.803481
    15  H    2.134651   2.473754   2.378586   3.235615   3.807770
    16  O    2.446481   2.627941   3.355929   2.343775   2.641862
    17  N    4.613862   4.838917   5.549289   2.572174   2.782064
    18  C    4.811228   5.006891   5.817420   3.054101   2.732019
    19  H    4.193356   4.473982   5.180350   2.797704   2.130308
    20  C    6.066272   6.155951   7.099686   4.338222   3.978129
    21  H    6.511709   6.592986   7.543587   4.982742   4.413824
    22  C    7.010525   7.039769   8.036554   5.101983   4.991081
    23  H    7.995344   7.972681   9.037971   6.150047   5.982714
    24  H    7.937976   8.183582   8.879546   5.311039   5.271186
    25  C    6.823010   6.847029   7.794540   4.843343   5.037650
    26  C    5.727085   5.839729   6.637253   3.692666   4.075320
    27  H    5.916281   6.033597   6.728040   3.936463   4.562305
    28  C    8.104311   8.069757   9.042891   6.129595   6.450299
    29  O    8.457950   8.476716   9.316067   6.345390   6.847163
    30  N    9.089636   8.961799  10.080798   7.295387   7.474472
    31  H    9.845434   9.676137  10.814363   8.112591   8.366740
    32  H    8.806528   8.587325   9.833339   7.335934   7.405810
    33  C    7.860135   8.661551   8.224088   4.517873   5.140852
    34  C    7.652298   8.216144   8.341651   4.296498   4.663676
    35  C    8.331536   8.751477   9.119632   5.190818   5.500741
    36  C    9.986816  10.228275  10.902227   7.195864   7.277908
    37  C    8.696923   9.030168   9.579757   5.779931   5.835551
    38  O    7.019668   7.662780   7.693621   3.641537   3.791723
    39  S    8.221574   8.851162   8.752332   4.876781   5.533922
    40  H    8.252574   9.084636   8.641869   4.861709   5.274721
    41  H    6.817509   7.647579   7.148883   3.547720   4.231912
    42  H   10.031911  10.169383  11.002564   7.514144   7.512425
    43  H   10.238768  10.463882  11.125761   7.433128   7.666700
    44  H   10.818457  11.111141  11.716782   7.916097   7.945771
    45  H    8.888201   9.296483   9.747990   5.904104   5.811630
    46  H    8.882319   9.257192   9.648473   5.816076   6.266625
    47  H    1.090000   1.783898   1.788281   3.339100   2.919578
    48  H    8.498562   9.326606   8.757225   5.304653   6.006114
                    6          7          8          9         10
     6  O    0.000000
     7  H    0.978180   0.000000
     8  C    2.419883   3.282168   0.000000
     9  H    2.898814   3.753055   1.103268   0.000000
    10  O    2.589195   3.526124   1.400269   2.083831   0.000000
    11  H    3.514868   4.468616   1.935704   2.325542   0.963579
    12  C    2.507158   2.771536   2.359645   3.317396   2.932916
    13  H    2.654801   2.993971   2.639087   3.716502   2.649809
    14  C    3.655014   4.348876   1.564121   2.213508   2.475682
    15  H    4.277643   5.028583   2.177991   2.874000   2.495107
    16  O    3.615259   4.028344   2.408995   3.238941   3.255699
    17  N    3.243173   3.043476   3.734318   4.579506   4.338660
    18  C    3.784334   3.434367   4.316009   4.922392   5.204612
    19  H    3.701540   3.491762   3.936958   4.337193   5.037989
    20  C    4.877088   4.334638   5.658092   6.248998   6.494729
    21  H    5.523565   4.949361   6.292950   6.741583   7.248206
    22  C    5.467116   4.859964   6.423558   7.160255   7.040032
    23  H    6.465917   5.797632   7.489116   8.201542   8.111857
    24  H    5.203898   4.373604   6.795112   7.477241   7.234024
    25  C    5.156237   4.663675   6.037976   6.927011   6.420559
    26  C    4.082376   3.777375   4.774072   5.722844   5.087666
    27  H    4.216454   4.056648   4.793771   5.834192   4.825171
    28  C    6.300195   5.798740   7.248530   8.205476   7.432391
    29  O    6.361422   5.920985   7.364794   8.377218   7.319924
    30  N    7.523080   6.956950   8.457400   9.371820   8.751221
    31  H    8.312068   7.776107   9.208748  10.165400   9.405895
    32  H    7.732687   7.205234   8.459843   9.336816   8.892389
    33  C    3.172901   2.881273   5.365640   5.797759   4.865855
    34  C    3.456199   2.612635   5.662039   6.304220   5.646466
    35  C    4.594198   3.761806   6.590267   7.322102   6.631421
    36  C    6.846270   5.971211   8.658290   9.380759   8.888059
    37  C    5.399551   4.501176   7.274291   7.943206   7.556701
    38  O    2.799299   1.835403   5.079415   5.554462   5.284937
    39  S    3.790915   3.274065   5.927063   6.603000   5.485510
    40  H    3.511707   3.047017   5.834584   6.130651   5.534162
    41  H    2.192657   2.143831   4.297620   4.718610   3.820369
    42  H    7.352420   6.508135   8.964944   9.696571   9.308261
    43  H    7.038550   6.226288   8.818527   9.621303   8.897163
    44  H    7.454991   6.531978   9.410247  10.067076   9.636723
    45  H    5.444873   4.485839   7.440658   7.977869   7.809177
    46  H    5.209610   4.483032   7.104715   7.921448   6.978588
    47  H    4.611759   5.166031   2.797346   2.581188   4.110914
    48  H    3.964739   3.848863   5.933256   6.329963   5.220110
                   11         12         13         14         15
    11  H    0.000000
    12  C    3.719183   0.000000
    13  H    3.419396   1.098346   0.000000
    14  C    2.702795   2.316315   2.720371   0.000000
    15  H    2.440682   2.900287   2.919970   1.098484   0.000000
    16  O    3.758795   1.422829   2.091523   1.440684   2.066702
    17  N    5.164420   1.461518   2.087741   3.598506   4.215175
    18  C    6.019947   2.450354   3.335338   4.169668   4.994120
    19  H    5.793793   2.628566   3.678117   3.820608   4.788773
    20  C    7.332959   3.696473   4.442803   5.488171   6.273373
    21  H    8.072787   4.554500   5.393421   6.140158   7.010014
    22  C    7.896761   4.211293   4.673795   6.236054   6.860320
    23  H    8.972213   5.286901   5.730792   7.281525   7.904794
    24  H    8.170209   4.790069   5.096629   7.016816   7.666848
    25  C    7.249588   3.700485   3.858265   5.821539   6.255007
    26  C    5.899995   2.437136   2.498969   4.592045   4.976186
    27  H    5.577469   2.618835   2.213311   4.621850   4.778389
    28  C    8.229981   4.924570   4.822308   7.015906   7.289357
    29  O    8.085537   5.154623   4.793871   7.226275   7.361001
    30  N    9.549309   6.105239   6.130269   8.133823   8.455498
    31  H   10.171569   6.864299   6.774456   8.847572   9.073445
    32  H    9.664598   6.108929   6.274737   7.992064   8.354192
    33  C    5.648489   5.145535   4.800763   6.625670   6.990074
    34  C    6.591780   4.333135   4.246849   6.460475   6.989277
    35  C    7.572370   4.870939   4.785050   7.147054   7.643285
    36  C    9.827185   6.662797   6.740861   8.958652   9.505012
    37  C    8.510055   5.411211   5.570393   7.682924   8.295734
    38  O    6.237547   4.035883   4.214989   5.984836   6.665471
    39  S    6.336312   4.973515   4.522340   6.876644   7.188040
    40  H    6.336042   5.639353   5.479122   7.138481   7.631720
    41  H    4.617554   4.308986   4.007432   5.604660   5.983763
    42  H   10.233423   6.849535   7.018967   9.095555   9.657323
    43  H    9.810990   6.789506   6.696686   9.102251   9.535132
    44  H   10.588239   7.532084   7.631847   9.815472  10.402748
    45  H    8.772091   5.797911   6.078747   7.974696   8.686319
    46  H    7.880788   5.334357   5.049513   7.603604   7.967212
    47  H    4.278126   3.695559   4.504691   2.163021   3.048729
    48  H    5.881825   5.942159   5.471753   7.238745   7.485468
                   16         17         18         19         20
    16  O    0.000000
    17  N    2.355149   0.000000
    18  C    2.981970   1.364739   0.000000
    19  H    2.880444   2.101188   1.077232   0.000000
    20  C    4.229274   2.360499   1.351717   2.119047   0.000000
    21  H    4.967430   3.333973   2.105682   2.443009   1.077622
    22  C    4.883904   2.749866   2.379966   3.365694   1.392890
    23  H    5.915287   3.825384   3.352068   4.253576   2.146217
    24  H    5.833787   3.491180   3.264984   4.138306   2.511775
    25  C    4.468171   2.369219   2.746125   3.821445   2.405874
    26  C    3.313715   1.355664   2.355766   3.318721   2.733618
    27  H    3.489793   2.099817   3.326524   4.192654   3.813226
    28  C    5.687718   3.749383   4.256628   5.331444   3.800888
    29  O    6.011580   4.223151   5.000829   6.054389   4.763365
    30  N    6.743419   4.810497   5.011202   6.060658   4.221057
    31  H    7.474960   5.651358   5.965048   7.019789   5.230133
    32  H    6.563078   4.777939   4.799767   5.789851   3.928887
    33  C    6.476397   5.417065   6.050434   6.309902   6.687000
    34  C    5.734604   3.827978   4.244949   4.835995   4.441610
    35  C    6.197941   4.014611   4.368367   5.170852   4.195474
    36  C    7.784670   5.434195   5.390293   6.282194   4.569940
    37  C    6.596317   4.266277   4.201835   5.017143   3.600404
    38  O    5.370705   3.641708   3.780424   4.125270   4.121307
    39  S    6.382127   4.869812   5.611393   6.162962   6.004930
    40  H    6.965076   5.777908   6.183382   6.368406   6.715804
    41  H    5.569157   4.795308   5.463035   5.614692   6.279013
    42  H    7.829278   5.501924   5.320249   6.233631   4.303928
    43  H    7.937569   5.641838   5.843121   6.802292   5.152674
    44  H    8.691204   6.341532   6.204918   7.016323   5.361740
    45  H    6.979396   4.726914   4.433406   5.067215   3.837942
    46  H    6.645738   4.539768   5.098701   5.975932   4.932019
    47  H    2.776000   4.558333   4.466489   3.660538   5.676228
    48  H    7.221546   6.342017   7.062229   7.309710   7.736764
                   21         22         23         24         25
    21  H    0.000000
    22  C    2.144726   0.000000
    23  H    2.474027   1.076410   0.000000
    24  H    3.010085   1.841430   2.062669   0.000000
    25  C    3.388280   1.409304   2.167637   2.353272   0.000000
    26  C    3.811043   2.386067   3.366955   3.109227   1.362132
    27  H    4.890525   3.371449   4.271024   3.899848   2.119487
    28  C    4.677048   2.538821   2.761145   3.040059   1.510617
    29  O    5.703636   3.595441   3.902004   3.745022   2.382865
    30  N    4.867011   2.854905   2.529079   3.468145   2.456652
    31  H    5.882466   3.871294   3.529840   4.385495   3.330439
    32  H    4.471807   2.688968   2.268477   3.764511   2.587678
    33  C    7.342314   6.777462   7.554409   5.703573   6.315015
    34  C    5.106402   4.265556   4.907445   2.978470   3.974416
    35  C    4.871328   3.622995   4.053106   2.144969   3.323515
    36  C    4.941060   3.594167   3.294977   2.144944   3.785571
    37  C    4.047448   2.951689   3.069306   1.139220   3.187650
    38  O    4.632178   4.345077   5.054792   3.218374   4.342409
    39  S    6.767079   5.747056   6.424311   4.588165   5.127497
    40  H    7.233183   6.893107   7.598261   5.660946   6.642729
    41  H    6.954366   6.525708   7.402719   5.710404   6.057798
    42  H    4.581624   3.220589   2.632978   2.248717   3.615907
    43  H    5.683076   4.041148   3.837220   2.784745   3.856320
    44  H    5.586609   4.519265   4.147901   2.951591   4.835767
    45  H    4.045727   3.528972   3.612619   1.749756   4.036086
    46  H    5.691163   4.142979   4.506572   2.863562   3.549411
    47  H    5.970603   6.774343   7.721496   7.637690   6.796794
    48  H    8.417740   7.784977   8.561448   6.713219   7.228927
                   26         27         28         29         30
    26  C    0.000000
    27  H    1.079916   0.000000
    28  C    2.491024   2.686802   0.000000
    29  O    2.878857   2.622032   1.201607   0.000000
    30  N    3.695065   4.042793   1.418915   2.308761   0.000000
    31  H    4.446680   4.600020   2.020421   2.464787   1.023794
    32  H    3.828541   4.320748   2.044742   3.093578   1.022754
    33  C    5.581242   5.459208   6.933578   6.618879   8.144425
    34  C    3.696413   3.923338   4.586194   4.548477   5.623488
    35  C    3.497253   3.783024   3.620755   3.632562   4.496651
    36  C    4.721774   5.213755   3.577733   3.954171   3.596437
    37  C    3.814001   4.405777   3.546275   3.965122   4.006053
    38  O    3.951798   4.375333   5.276139   5.440989   6.260560
    39  S    4.616034   4.426128   5.462929   5.037712   6.642330
    40  H    6.040728   6.091064   7.335263   7.147558   8.442255
    41  H    5.152077   5.041945   6.843597   6.605917   8.107256
    42  H    4.769275   5.363346   3.358054   3.990207   2.995379
    43  H    4.728872   5.006096   3.287966   3.362239   3.413677
    44  H    5.727680   6.226260   4.656370   4.981650   4.586011
    45  H    4.554152   5.227957   4.583586   5.051403   4.970529
    46  H    3.752913   3.778747   3.419699   3.112568   4.331492
    47  H    5.804532   6.169135   8.181067   8.642304   9.097640
    48  H    6.451619   6.198056   7.741944   7.300812   8.983330
                   31         32         33         34         35
    31  H    0.000000
    32  H    1.680230   0.000000
    33  C    8.761376   8.702032   0.000000
    34  C    6.329504   6.167041   2.759233   0.000000
    35  C    5.157698   5.137324   4.011524   1.372111   0.000000
    36  C    4.169093   4.240468   6.427336   3.786235   2.503199
    37  C    4.781737   4.513447   5.240613   2.510067   1.465266
    38  O    7.079611   6.638103   2.836464   1.265364   2.376212
    39  S    7.169073   7.313118   1.795854   1.768450   2.607961
    40  H    9.118635   8.971487   1.089973   2.831916   4.099029
    41  H    8.773590   8.565079   1.088183   2.982418   4.295710
    42  H    3.607394   3.492908   7.304666   4.583899   3.322921
    43  H    3.776147   4.252814   6.389198   3.898248   2.538124
    44  H    5.092861   5.200681   6.740895   4.254348   3.108736
    45  H    5.783279   5.371439   5.236138   2.701179   2.115497
    46  H    4.805031   5.127430   4.309990   2.098811   1.077751
    47  H    9.927088   8.782652   7.780147   7.466995   8.168663
    48  H    9.531005   9.589425   1.090000   3.743995   4.901508
                   36         37         38         39         40
    36  C    0.000000
    37  C    1.512208   0.000000
    38  O    4.463823   3.004760   0.000000
    39  S    4.999337   4.019218   2.636730   0.000000
    40  H    6.342929   5.129374   2.631759   2.374762   0.000000
    41  H    6.765299   5.458953   2.784988   2.380449   1.770791
    42  H    1.085865   2.151583   5.137397   5.898167   7.239339
    43  H    1.084100   2.144673   4.816905   4.780336   6.452704
    44  H    1.085062   2.145408   4.861881   5.408430   6.512285
    45  H    2.168762   1.100065   2.822841   4.310301   4.900738
    46  H    2.650472   2.190207   3.290059   2.622268   4.574256
    47  H    9.740346   8.408997   6.692123   8.207079   8.032267
    48  H    7.287652   6.195981   3.922903   2.422114   1.785505
                   41         42         43         44         45
    41  H    0.000000
    42  H    7.536965   0.000000
    43  H    6.781405   1.754708   0.000000
    44  H    7.196281   1.761763   1.766042   0.000000
    45  H    5.483619   2.762013   2.996827   2.322133   0.000000
    46  H    4.688868   3.494686   2.223897   3.292564   3.008136
    47  H    6.759291   9.772327  10.101690  10.509004   8.479540
    48  H    1.775647   8.205498   7.150036   7.564832   6.222499
                   46         47         48
    46  H    0.000000
    47  H    8.831937   0.000000
    48  H    5.037477   8.494894   0.000000
 Symmetry turned off by external request.
 Stoichiometry    C16H24N2O5S
 Framework group  C1[X(C16H24N2O5S)]
 Deg. of freedom   138
 Full point group                 C1      NOp   1
 Rotational constants (GHZ):           0.2844969           0.1682481           0.1255194
 Leave Link  202 at Sun Apr  9 10:48:11 2023, MaxMem=  2684354560 cpu:               0.1 elap:               0.0
 (Enter /opt/gaussian/g16/l301.exe)
 Standard basis: def2TZVP (5D, 7F)
 Ernie: Thresh=  0.10000D-02 Tol=  0.10000D-05 Strict=F.
   894 basis functions,  1434 primitive gaussians,  1014 cartesian basis functions
    95 alpha electrons       95 beta electrons
       nuclear repulsion energy      2431.5580244052 Hartrees.
 IExCor= 4336 DFT=T Ex+Corr=M062X ExCW=0 ScaHFX=  0.540000
 ScaDFX=  1.000000  1.000000  1.000000  1.000000 ScalE2=  1.000000  1.000000
 IRadAn=      5 IRanWt=     -1 IRanGd=            0 ICorTp=0 IEmpDi=131
 NAtoms=   48 NActive=   48 NUniq=   48 SFac= 1.00D+00 NAtFMM=   60 NAOKFM=F Big=F
 Integral buffers will be    131072 words long.
 Raffenetti 2 integral format.
 Two-electron integral symmetry is turned off.
 R6Disp:  Grimme-D3 Dispersion energy=       -0.0041944975 Hartrees.
 Nuclear repulsion after empirical dispersion term =     2431.5538299077 Hartrees.
 Leave Link  301 at Sun Apr  9 10:48:11 2023, MaxMem=  2684354560 cpu:               0.8 elap:               0.1
 (Enter /opt/gaussian/g16/l302.exe)
 NPDir=0 NMtPBC=     1 NCelOv=     1 NCel=       1 NClECP=     1 NCelD=      1
         NCelK=      1 NCelE2=     1 NClLst=     1 CellRange=     0.0.
 One-electron integrals computed using PRISM.
   1 Symmetry operations used in ECPInt.
 ECPInt:  NShTT=   65703 NPrTT=  200010 LenC2=   56026 LenP2D=  118625.
 LDataN:  DoStor=T MaxTD1= 6 Len=  172
 NBasis=   894 RedAO= T EigKep=  2.47D-05  NBF=   894
 NBsUse=   894 1.00D-06 EigRej= -1.00D+00 NBFU=   894
 Precomputing XC quadrature grid using
 IXCGrd= 4 IRadAn=           5 IRanWt=          -1 IRanGd=           0 AccXCQ= 0.00D+00.
 Generated NRdTot=       0 NPtTot=           0 NUsed=           0 NTot=          32
 NSgBfM=   994   993   993   994   994 MxSgAt=    48 MxSgA2=    48.
 Leave Link  302 at Sun Apr  9 10:48:14 2023, MaxMem=  2684354560 cpu:              40.2 elap:               2.5
 (Enter /opt/gaussian/g16/l303.exe)
 DipDrv:  MaxL=1.
 Leave Link  303 at Sun Apr  9 10:48:14 2023, MaxMem=  2684354560 cpu:               4.9 elap:               0.4
 (Enter /opt/gaussian/g16/l401.exe)
 ExpMin= 9.52D-02 ExpMax= 6.07D+04 ExpMxC= 2.07D+03 IAcc=3 IRadAn=         5 AccDes= 0.00D+00
 Harris functional with IExCor= 1009 and IRadAn=       5 diagonalized for initial guess.
 HarFok:  IExCor= 1009 AccDes= 0.00D+00 IRadAn=         5 IDoV= 1 UseB2=F ITyADJ=14
 ICtDFT=  3500011 ScaDFX=  1.000000  1.000000  1.000000  1.000000
 FoFCou: FMM=F IPFlag=           0 FMFlag=      100000 FMFlg1=           0
         NFxFlg=           0 DoJE=T BraDBF=F KetDBF=T FulRan=T
         wScrn=  0.000000 ICntrl=       500 IOpCl=  0 I1Cent=   200000004 NGrid=           0
         NMat0=    1 NMatS0=      1 NMatT0=    0 NMatD0=    1 NMtDS0=    0 NMtDT0=    0
 Symmetry not used in FoFCou.
 Harris En= -1507.22818739510    
 JPrj=0 DoOrth=F DoCkMO=F.
 Leave Link  401 at Sun Apr  9 10:48:23 2023, MaxMem=  2684354560 cpu:             150.4 elap:               9.4
 (Enter /opt/gaussian/g16/l502.exe)
 Two-electron integral symmetry not used.
 Closed shell SCF:
 Using DIIS extrapolation, IDIIS=  1040.
 NGot=  2684354560 LenX=  2682275214 LenY=  2681246004
 Requested convergence on RMS density matrix=1.00D-08 within 128 cycles.
 Requested convergence on MAX density matrix=1.00D-06.
 Requested convergence on             energy=1.00D-06.
 No special actions if energy rises.
 Fock matrices will be formed incrementally for  20 cycles.
 Integral accuracy reduced to 1.0D-05 until final iterations.

 Cycle   1  Pass 0  IDiag  1:
 FoFJK:  IHMeth= 1 ICntrl=       0 DoSepK=F KAlg= 0 I1Cent=           0 FoldK=F
 IRaf= 780000000 NMat=       1 IRICut=       1 DoRegI=T DoRafI=F ISym2E= 0 IDoP0=0 IntGTp=1.
 FoFCou: FMM=F IPFlag=           0 FMFlag=      100000 FMFlg1=           0
         NFxFlg=           0 DoJE=F BraDBF=F KetDBF=F FulRan=T
         wScrn=  0.000000 ICntrl=         0 IOpCl=  0 I1Cent=           0 NGrid=           0
         NMat0=    1 NMatS0=      1 NMatT0=    0 NMatD0=    1 NMtDS0=    0 NMtDT0=    0
 Symmetry not used in FoFCou.
 E= -1507.05286620061    
 DIIS: error= 1.45D-02 at cycle   1 NSaved=   1.
 NSaved= 1 IEnMin= 1 EnMin= -1507.05286620061     IErMin= 1 ErrMin= 1.45D-02
 ErrMax= 1.45D-02  0.00D+00 EMaxC= 1.00D-01 BMatC= 1.03D+00 BMatP= 1.03D+00
 IDIUse=3 WtCom= 8.55D-01 WtEn= 1.45D-01
 Coeff-Com:  0.100D+01
 Coeff-En:   0.100D+01
 Coeff:      0.100D+01
 Gap=     0.089 Goal=   None    Shift=    0.000
 GapD=    0.089 DampG=0.500 DampE=0.500 DampFc=0.2500 IDamp=-1.
 Damping current iteration by 2.50D-01
 RMSDP=4.10D-03 MaxDP=8.97D-01              OVMax= 8.00D-01

 Cycle   2  Pass 0  IDiag  1:
 RMSU=  1.03D-03    CP:  1.00D+00
 E= -1507.31616690456     Delta-E=       -0.263300703954 Rises=F Damp=T
 DIIS: error= 8.45D-03 at cycle   2 NSaved=   2.
 NSaved= 2 IEnMin= 2 EnMin= -1507.31616690456     IErMin= 2 ErrMin= 8.45D-03
 ErrMax= 8.45D-03  0.00D+00 EMaxC= 1.00D-01 BMatC= 3.09D-01 BMatP= 1.03D+00
 IDIUse=3 WtCom= 9.16D-01 WtEn= 8.45D-02
 Coeff-Com: -0.792D+00 0.179D+01
 Coeff-En:   0.000D+00 0.100D+01
 Coeff:     -0.725D+00 0.172D+01
 Gap=     0.359 Goal=   None    Shift=    0.000
 RMSDP=1.32D-03 MaxDP=6.97D-02 DE=-2.63D-01 OVMax= 7.78D-01

 Cycle   3  Pass 0  IDiag  1:
 RMSU=  1.32D-03    CP:  9.95D-01  1.09D+00
 E= -1507.65989437410     Delta-E=       -0.343727469541 Rises=F Damp=F
 DIIS: error= 7.71D-03 at cycle   3 NSaved=   3.
 NSaved= 3 IEnMin= 3 EnMin= -1507.65989437410     IErMin= 3 ErrMin= 7.71D-03
 ErrMax= 7.71D-03  0.00D+00 EMaxC= 1.00D-01 BMatC= 1.64D-01 BMatP= 3.09D-01
 IDIUse=3 WtCom= 9.23D-01 WtEn= 7.71D-02
 Coeff-Com: -0.555D+00 0.106D+01 0.498D+00
 Coeff-En:   0.000D+00 0.000D+00 0.100D+01
 Coeff:     -0.512D+00 0.976D+00 0.536D+00
 Gap=     0.082 Goal=   None    Shift=    0.000
 RMSDP=8.64D-04 MaxDP=4.51D-02 DE=-3.44D-01 OVMax= 3.44D-01

 Cycle   4  Pass 0  IDiag  1:
 RMSU=  7.10D-04    CP:  9.96D-01  1.38D+00  7.01D-01
 E= -1507.83732555987     Delta-E=       -0.177431185765 Rises=F Damp=F
 DIIS: error= 2.22D-03 at cycle   4 NSaved=   4.
 NSaved= 4 IEnMin= 4 EnMin= -1507.83732555987     IErMin= 4 ErrMin= 2.22D-03
 ErrMax= 2.22D-03  0.00D+00 EMaxC= 1.00D-01 BMatC= 1.25D-02 BMatP= 1.64D-01
 IDIUse=3 WtCom= 9.78D-01 WtEn= 2.22D-02
 Coeff-Com: -0.166D+00 0.267D+00 0.240D+00 0.660D+00
 Coeff-En:   0.000D+00 0.000D+00 0.000D+00 0.100D+01
 Coeff:     -0.163D+00 0.261D+00 0.234D+00 0.667D+00
 Gap=     0.115 Goal=   None    Shift=    0.000
 RMSDP=2.36D-04 MaxDP=1.38D-02 DE=-1.77D-01 OVMax= 8.85D-02

 Cycle   5  Pass 0  IDiag  1:
 RMSU=  2.00D-04    CP:  9.96D-01  1.36D+00  7.47D-01  8.49D-01
 E= -1507.84697996207     Delta-E=       -0.009654402199 Rises=F Damp=F
 DIIS: error= 1.42D-03 at cycle   5 NSaved=   5.
 NSaved= 5 IEnMin= 5 EnMin= -1507.84697996207     IErMin= 5 ErrMin= 1.42D-03
 ErrMax= 1.42D-03  0.00D+00 EMaxC= 1.00D-01 BMatC= 2.46D-03 BMatP= 1.25D-02
 IDIUse=3 WtCom= 9.86D-01 WtEn= 1.42D-02
 Coeff-Com: -0.553D-01 0.788D-01 0.709D-01 0.361D+00 0.545D+00
 Coeff-En:   0.000D+00 0.000D+00 0.000D+00 0.159D+00 0.841D+00
 Coeff:     -0.545D-01 0.776D-01 0.699D-01 0.358D+00 0.549D+00
 Gap=     0.116 Goal=   None    Shift=    0.000
 RMSDP=1.07D-04 MaxDP=8.95D-03 DE=-9.65D-03 OVMax= 3.72D-02

 Cycle   6  Pass 0  IDiag  1:
 RMSU=  8.27D-05    CP:  9.96D-01  1.37D+00  7.22D-01  9.24D-01  9.22D-01
 E= -1507.84954051647     Delta-E=       -0.002560554402 Rises=F Damp=F
 DIIS: error= 2.82D-04 at cycle   6 NSaved=   6.
 NSaved= 6 IEnMin= 6 EnMin= -1507.84954051647     IErMin= 6 ErrMin= 2.82D-04
 ErrMax= 2.82D-04  0.00D+00 EMaxC= 1.00D-01 BMatC= 2.60D-04 BMatP= 2.46D-03
 IDIUse=3 WtCom= 9.97D-01 WtEn= 2.82D-03
 Coeff-Com: -0.466D-02 0.367D-02-0.463D-02 0.716D-01 0.284D+00 0.650D+00
 Coeff-En:   0.000D+00 0.000D+00 0.000D+00 0.000D+00 0.000D+00 0.100D+01
 Coeff:     -0.464D-02 0.366D-02-0.461D-02 0.714D-01 0.283D+00 0.651D+00
 Gap=     0.121 Goal=   None    Shift=    0.000
 RMSDP=3.89D-05 MaxDP=3.17D-03 DE=-2.56D-03 OVMax= 6.90D-03

 Cycle   7  Pass 0  IDiag  1:
 RMSU=  3.18D-05    CP:  9.95D-01  1.37D+00  7.22D-01  9.32D-01  1.02D+00
                    CP:  9.50D-01
 E= -1507.84980765949     Delta-E=       -0.000267143022 Rises=F Damp=F
 DIIS: error= 1.64D-04 at cycle   7 NSaved=   7.
 NSaved= 7 IEnMin= 7 EnMin= -1507.84980765949     IErMin= 7 ErrMin= 1.64D-04
 ErrMax= 1.64D-04  0.00D+00 EMaxC= 1.00D-01 BMatC= 3.05D-05 BMatP= 2.60D-04
 IDIUse=3 WtCom= 9.98D-01 WtEn= 1.64D-03
 Coeff-Com:  0.446D-02-0.702D-02-0.113D-01-0.214D-01 0.527D-01 0.294D+00
 Coeff-Com:  0.689D+00
 Coeff-En:   0.000D+00 0.000D+00 0.000D+00 0.000D+00 0.000D+00 0.000D+00
 Coeff-En:   0.100D+01
 Coeff:      0.445D-02-0.701D-02-0.113D-01-0.214D-01 0.526D-01 0.293D+00
 Coeff:      0.689D+00
 Gap=     0.121 Goal=   None    Shift=    0.000
 RMSDP=1.94D-05 MaxDP=1.31D-03 DE=-2.67D-04 OVMax= 2.49D-03

 Cycle   8  Pass 0  IDiag  1:
 RMSU=  1.59D-05    CP:  9.95D-01  1.37D+00  7.22D-01  9.37D-01  1.05D+00
                    CP:  1.03D+00  1.20D+00
 E= -1507.84985111033     Delta-E=       -0.000043450843 Rises=F Damp=F
 DIIS: error= 3.45D-05 at cycle   8 NSaved=   8.
 NSaved= 8 IEnMin= 8 EnMin= -1507.84985111033     IErMin= 8 ErrMin= 3.45D-05
 ErrMax= 3.45D-05  0.00D+00 EMaxC= 1.00D-01 BMatC= 3.74D-06 BMatP= 3.05D-05
 IDIUse=1 WtCom= 1.00D+00 WtEn= 0.00D+00
 Coeff-Com:  0.262D-02-0.353D-02-0.305D-02-0.193D-01-0.214D-01 0.113D-01
 Coeff-Com:  0.260D+00 0.773D+00
 Coeff:      0.262D-02-0.353D-02-0.305D-02-0.193D-01-0.214D-01 0.113D-01
 Coeff:      0.260D+00 0.773D+00
 Gap=     0.122 Goal=   None    Shift=    0.000
 RMSDP=1.54D-05 MaxDP=9.12D-04 DE=-4.35D-05 OVMax= 1.29D-03

 Cycle   9  Pass 0  IDiag  1:
 RMSU=  1.09D-05    CP:  9.95D-01  1.37D+00  7.23D-01  9.38D-01  1.06D+00
                    CP:  1.08D+00  1.39D+00  1.45D+00
 E= -1507.84985462475     Delta-E=       -0.000003514414 Rises=F Damp=F
 DIIS: error= 1.65D-05 at cycle   9 NSaved=   9.
 NSaved= 9 IEnMin= 9 EnMin= -1507.84985462475     IErMin= 9 ErrMin= 1.65D-05
 ErrMax= 1.65D-05  0.00D+00 EMaxC= 1.00D-01 BMatC= 6.22D-07 BMatP= 3.74D-06
 IDIUse=1 WtCom= 1.00D+00 WtEn= 0.00D+00
 Coeff-Com:  0.445D-03-0.474D-03 0.238D-03-0.473D-02-0.130D-01-0.250D-01
 Coeff-Com:  0.186D-01 0.292D+00 0.732D+00
 Coeff:      0.445D-03-0.474D-03 0.238D-03-0.473D-02-0.130D-01-0.250D-01
 Coeff:      0.186D-01 0.292D+00 0.732D+00
 Gap=     0.122 Goal=   None    Shift=    0.000
 RMSDP=1.84D-05 MaxDP=1.52D-03 DE=-3.51D-06 OVMax= 3.68D-04

 Cycle  10  Pass 0  IDiag  1:
 RMSU=  9.54D-06    CP:  9.95D-01  1.36D+00  7.24D-01  9.39D-01  1.05D+00
                    CP:  1.10D+00  1.56D+00  2.00D+00  2.07D+00
 E= -1507.84984995328     Delta-E=        0.000004671470 Rises=F Damp=F
 DIIS: error= 2.67D-05 at cycle  10 NSaved=  10.
 NSaved=10 IEnMin= 9 EnMin= -1507.84985462475     IErMin= 9 ErrMin= 1.65D-05
 ErrMax= 2.67D-05  0.00D+00 EMaxC= 1.00D-01 BMatC= 5.15D-07 BMatP= 6.22D-07
 IDIUse=1 WtCom= 1.00D+00 WtEn= 0.00D+00
 Coeff-Com:  0.290D-03-0.319D-03 0.229D-03-0.285D-02-0.876D-02-0.183D-01
 Coeff-Com:  0.335D-02 0.185D+00 0.551D+00 0.290D+00
 Coeff:      0.290D-03-0.319D-03 0.229D-03-0.285D-02-0.876D-02-0.183D-01
 Coeff:      0.335D-02 0.185D+00 0.551D+00 0.290D+00
 Gap=     0.122 Goal=   None    Shift=    0.000
 RMSDP=1.08D-05 MaxDP=7.36D-04 DE= 4.67D-06 OVMax= 9.11D-05

 Cycle  11  Pass 0  IDiag  1:
 RMSU=  2.76D-06    CP:  9.95D-01  1.36D+00  7.24D-01  9.40D-01  1.05D+00
                    CP:  1.10D+00  1.64D+00  2.28D+00  2.70D+00  1.61D+00
 E= -1507.84985888234     Delta-E=       -0.000008929061 Rises=F Damp=F
 DIIS: error= 3.38D-05 at cycle  11 NSaved=  11.
 NSaved=11 IEnMin=11 EnMin= -1507.84985888234     IErMin= 9 ErrMin= 1.65D-05
 ErrMax= 3.38D-05  0.00D+00 EMaxC= 1.00D-01 BMatC= 7.25D-07 BMatP= 5.15D-07
 IDIUse=1 WtCom= 1.00D+00 WtEn= 0.00D+00
 Coeff-Com: -0.628D-05 0.627D-04 0.686D-03-0.325D-03-0.740D-02-0.247D-01
 Coeff-Com: -0.421D-01 0.102D+00 0.729D+00 0.170D+01-0.145D+01
 Coeff:     -0.628D-05 0.627D-04 0.686D-03-0.325D-03-0.740D-02-0.247D-01
 Coeff:     -0.421D-01 0.102D+00 0.729D+00 0.170D+01-0.145D+01
 Gap=     0.121 Goal=   None    Shift=    0.000
 RMSDP=3.19D-05 MaxDP=3.40D-03 DE=-8.93D-06 OVMax= 6.93D-05

 Cycle  12  Pass 0  IDiag  1:
 RMSU=  1.27D-05    CP:  9.95D-01  1.36D+00  7.22D-01  9.36D-01  1.05D+00
                    CP:  1.10D+00  1.38D+00  1.51D+00  1.40D+00 -3.67D-01
                    CP: -1.92D+00
 E= -1507.84982658986     Delta-E=        0.000032292478 Rises=F Damp=F
 DIIS: error= 1.29D-05 at cycle  12 NSaved=  12.
 NSaved=12 IEnMin=11 EnMin= -1507.84985888234     IErMin=12 ErrMin= 1.29D-05
 ErrMax= 1.29D-05  0.00D+00 EMaxC= 1.00D-01 BMatC= 1.40D-07 BMatP= 5.15D-07
 IDIUse=1 WtCom= 1.00D+00 WtEn= 0.00D+00
 Coeff-Com: -0.135D-03 0.191D-03 0.453D-03 0.125D-02-0.103D-02-0.929D-02
 Coeff-Com: -0.364D-01-0.233D-01 0.273D+00 0.116D+01-0.115D+01 0.783D+00
 Coeff:     -0.135D-03 0.191D-03 0.453D-03 0.125D-02-0.103D-02-0.929D-02
 Coeff:     -0.364D-01-0.233D-01 0.273D+00 0.116D+01-0.115D+01 0.783D+00
 Gap=     0.121 Goal=   None    Shift=    0.000
 RMSDP=1.53D-05 MaxDP=2.70D-03 DE= 3.23D-05 OVMax= 1.30D-04

 Cycle  13  Pass 0  IDiag  1:
 RMSU=  5.47D-06    CP:  9.95D-01  1.36D+00  7.22D-01  9.34D-01  1.06D+00
                    CP:  1.12D+00  1.33D+00  1.38D+00  1.38D+00 -7.04D-01
                    CP: -3.00D+00  2.01D+00
 E= -1507.84979769152     Delta-E=        0.000028898335 Rises=F Damp=F
 DIIS: error= 1.21D-05 at cycle  13 NSaved=  13.
 NSaved=13 IEnMin=11 EnMin= -1507.84985888234     IErMin=13 ErrMin= 1.21D-05
 ErrMax= 1.21D-05  0.00D+00 EMaxC= 1.00D-01 BMatC= 6.29D-08 BMatP= 1.40D-07
 IDIUse=1 WtCom= 1.00D+00 WtEn= 0.00D+00
 Coeff-Com: -0.484D-04 0.725D-04 0.259D-03 0.621D-03-0.388D-03-0.429D-02
 Coeff-Com: -0.187D-01-0.143D-01 0.122D+00 0.553D+00-0.569D+00 0.448D+00
 Coeff-Com:  0.483D+00
 Coeff:     -0.484D-04 0.725D-04 0.259D-03 0.621D-03-0.388D-03-0.429D-02
 Coeff:     -0.187D-01-0.143D-01 0.122D+00 0.553D+00-0.569D+00 0.448D+00
 Coeff:      0.483D+00
 Gap=     0.121 Goal=   None    Shift=    0.000
 RMSDP=9.66D-06 MaxDP=1.21D-03 DE= 2.89D-05 OVMax= 4.66D-05

 Cycle  14  Pass 0  IDiag  1:
 RMSU=  4.50D-06    CP:  9.95D-01  1.36D+00  7.22D-01  9.33D-01  1.06D+00
                    CP:  1.12D+00  1.36D+00  1.39D+00  1.63D+00 -4.25D-01
                    CP: -3.00D+00  2.43D+00  1.78D+00
 E= -1507.84978287449     Delta-E=        0.000014817037 Rises=F Damp=F
 DIIS: error= 1.35D-05 at cycle  14 NSaved=  14.
 NSaved=14 IEnMin=11 EnMin= -1507.84985888234     IErMin=13 ErrMin= 1.21D-05
 ErrMax= 1.35D-05  0.00D+00 EMaxC= 1.00D-01 BMatC= 6.09D-08 BMatP= 6.29D-08
 IDIUse=1 WtCom= 1.00D+00 WtEn= 0.00D+00
 Coeff-Com: -0.383D-04 0.586D-04 0.240D-03 0.514D-03-0.501D-03-0.427D-02
 Coeff-Com: -0.169D-01-0.898D-02 0.119D+00 0.483D+00-0.478D+00 0.357D+00
 Coeff-Com:  0.239D+00 0.309D+00
 Coeff:     -0.383D-04 0.586D-04 0.240D-03 0.514D-03-0.501D-03-0.427D-02
 Coeff:     -0.169D-01-0.898D-02 0.119D+00 0.483D+00-0.478D+00 0.357D+00
 Coeff:      0.239D+00 0.309D+00
 Gap=     0.121 Goal=   None    Shift=    0.000
 RMSDP=4.35D-06 MaxDP=6.38D-04 DE= 1.48D-05 OVMax= 1.37D-05

 Initial convergence to 1.0D-05 achieved.  Increase integral accuracy.
 Cycle  15  Pass 1  IDiag  1:
 E= -1507.84974321789     Delta-E=        0.000039656598 Rises=F Damp=F
 DIIS: error= 3.76D-04 at cycle   1 NSaved=   1.
 NSaved= 1 IEnMin= 1 EnMin= -1507.84974321789     IErMin= 1 ErrMin= 3.76D-04
 ErrMax= 3.76D-04  0.00D+00 EMaxC= 1.00D-01 BMatC= 8.53D-05 BMatP= 8.53D-05
 IDIUse=3 WtCom= 9.96D-01 WtEn= 3.76D-03
 Coeff-Com:  0.100D+01
 Coeff-En:   0.100D+01
 Coeff:      0.100D+01
 Gap=     0.121 Goal=   None    Shift=    0.000
 RMSDP=4.35D-06 MaxDP=6.38D-04 DE= 3.97D-05 OVMax= 7.97D-04

 Cycle  16  Pass 1  IDiag  1:
 RMSU=  4.64D-04    CP:  9.95D-01
 E= -1507.84979604015     Delta-E=       -0.000052822261 Rises=F Damp=F
 DIIS: error= 7.76D-06 at cycle   2 NSaved=   2.
 NSaved= 2 IEnMin= 2 EnMin= -1507.84979604015     IErMin= 2 ErrMin= 7.76D-06
 ErrMax= 7.76D-06  0.00D+00 EMaxC= 1.00D-01 BMatC= 6.41D-08 BMatP= 8.53D-05
 IDIUse=1 WtCom= 1.00D+00 WtEn= 0.00D+00
 Coeff-Com: -0.162D-01 0.102D+01
 Coeff:     -0.162D-01 0.102D+01
 Gap=     0.121 Goal=   None    Shift=    0.000
 RMSDP=1.71D-05 MaxDP=1.15D-03 DE=-5.28D-05 OVMax= 3.26D-04

 Cycle  17  Pass 1  IDiag  1:
 RMSU=  6.57D-06    CP:  9.95D-01  1.03D+00
 E= -1507.84979608382     Delta-E=       -0.000000043666 Rises=F Damp=F
 DIIS: error= 4.84D-06 at cycle   3 NSaved=   3.
 NSaved= 3 IEnMin= 3 EnMin= -1507.84979608382     IErMin= 3 ErrMin= 4.84D-06
 ErrMax= 4.84D-06  0.00D+00 EMaxC= 1.00D-01 BMatC= 5.67D-08 BMatP= 6.41D-08
 IDIUse=1 WtCom= 1.00D+00 WtEn= 0.00D+00
 Coeff-Com: -0.928D-02 0.556D+00 0.453D+00
 Coeff:     -0.928D-02 0.556D+00 0.453D+00
 Gap=     0.121 Goal=   None    Shift=    0.000
 RMSDP=6.24D-07 MaxDP=4.89D-05 DE=-4.37D-08 OVMax= 1.94D-04

 Cycle  18  Pass 1  IDiag  1:
 RMSU=  5.72D-07    CP:  9.95D-01  1.03D+00  1.01D+00
 E= -1507.84979613542     Delta-E=       -0.000000051602 Rises=F Damp=F
 DIIS: error= 1.88D-06 at cycle   4 NSaved=   4.
 NSaved= 4 IEnMin= 4 EnMin= -1507.84979613542     IErMin= 4 ErrMin= 1.88D-06
 ErrMax= 1.88D-06  0.00D+00 EMaxC= 1.00D-01 BMatC= 4.67D-09 BMatP= 5.67D-08
 IDIUse=1 WtCom= 1.00D+00 WtEn= 0.00D+00
 Coeff-Com: -0.425D-03 0.145D-01 0.210D+00 0.776D+00
 Coeff:     -0.425D-03 0.145D-01 0.210D+00 0.776D+00
 Gap=     0.121 Goal=   None    Shift=    0.000
 RMSDP=4.41D-07 MaxDP=4.19D-05 DE=-5.16D-08 OVMax= 1.04D-04

 Cycle  19  Pass 1  IDiag  1:
 RMSU=  2.25D-07    CP:  9.95D-01  1.04D+00  1.06D+00  9.59D-01
 E= -1507.84979614099     Delta-E=       -0.000000005574 Rises=F Damp=F
 DIIS: error= 1.11D-06 at cycle   5 NSaved=   5.
 NSaved= 5 IEnMin= 5 EnMin= -1507.84979614099     IErMin= 5 ErrMin= 1.11D-06
 ErrMax= 1.11D-06  0.00D+00 EMaxC= 1.00D-01 BMatC= 1.63D-09 BMatP= 4.67D-09
 IDIUse=1 WtCom= 1.00D+00 WtEn= 0.00D+00
 Coeff-Com:  0.501D-03-0.370D-01 0.761D-01 0.493D+00 0.468D+00
 Coeff:      0.501D-03-0.370D-01 0.761D-01 0.493D+00 0.468D+00
 Gap=     0.121 Goal=   None    Shift=    0.000
 RMSDP=8.87D-08 MaxDP=4.84D-06 DE=-5.57D-09 OVMax= 1.51D-05

 Cycle  20  Pass 1  IDiag  1:
 RMSU=  5.91D-08    CP:  9.95D-01  1.04D+00  1.06D+00  1.05D+00  1.03D+00
 E= -1507.84979614258     Delta-E=       -0.000000001591 Rises=F Damp=F
 DIIS: error= 1.81D-07 at cycle   6 NSaved=   6.
 NSaved= 6 IEnMin= 6 EnMin= -1507.84979614258     IErMin= 6 ErrMin= 1.81D-07
 ErrMax= 1.81D-07  0.00D+00 EMaxC= 1.00D-01 BMatC= 1.25D-10 BMatP= 1.63D-09
 IDIUse=1 WtCom= 1.00D+00 WtEn= 0.00D+00
 Coeff-Com:  0.284D-03-0.184D-01-0.106D-01 0.133D+00 0.153D+00 0.743D+00
 Coeff:      0.284D-03-0.184D-01-0.106D-01 0.133D+00 0.153D+00 0.743D+00
 Gap=     0.121 Goal=   None    Shift=    0.000
 RMSDP=4.83D-08 MaxDP=4.76D-06 DE=-1.59D-09 OVMax= 1.14D-05

 Cycle  21  Pass 1  IDiag  1:
 RMSU=  2.55D-08    CP:  9.95D-01  1.04D+00  1.06D+00  1.09D+00  1.18D+00
                    CP:  1.17D+00
 E= -1507.84979614282     Delta-E=       -0.000000000238 Rises=F Damp=F
 DIIS: error= 1.81D-07 at cycle   7 NSaved=   7.
 NSaved= 7 IEnMin= 7 EnMin= -1507.84979614282     IErMin= 6 ErrMin= 1.81D-07
 ErrMax= 1.81D-07  0.00D+00 EMaxC= 1.00D-01 BMatC= 4.80D-11 BMatP= 1.25D-10
 IDIUse=1 WtCom= 1.00D+00 WtEn= 0.00D+00
 Coeff-Com: -0.290D-04 0.317D-02-0.360D-01-0.662D-01-0.111D+00 0.356D+00
 Coeff-Com:  0.854D+00
 Coeff:     -0.290D-04 0.317D-02-0.360D-01-0.662D-01-0.111D+00 0.356D+00
 Coeff:      0.854D+00
 Gap=     0.121 Goal=   None    Shift=    0.000
 RMSDP=3.70D-08 MaxDP=2.69D-06 DE=-2.38D-10 OVMax= 7.92D-06

 Cycle  22  Pass 1  IDiag  1:
 RMSU=  1.37D-08    CP:  9.95D-01  1.04D+00  1.06D+00  1.13D+00  1.26D+00
                    CP:  1.42D+00  1.45D+00
 E= -1507.84979614286     Delta-E=       -0.000000000035 Rises=F Damp=F
 DIIS: error= 4.98D-08 at cycle   8 NSaved=   8.
 NSaved= 8 IEnMin= 8 EnMin= -1507.84979614286     IErMin= 8 ErrMin= 4.98D-08
 ErrMax= 4.98D-08  0.00D+00 EMaxC= 1.00D-01 BMatC= 4.82D-12 BMatP= 4.80D-11
 IDIUse=1 WtCom= 1.00D+00 WtEn= 0.00D+00
 Coeff-Com: -0.480D-04 0.359D-02-0.143D-01-0.356D-01-0.698D-01 0.358D-01
 Coeff-Com:  0.300D+00 0.780D+00
 Coeff:     -0.480D-04 0.359D-02-0.143D-01-0.356D-01-0.698D-01 0.358D-01
 Coeff:      0.300D+00 0.780D+00
 Gap=     0.121 Goal=   None    Shift=    0.000
 RMSDP=1.19D-08 MaxDP=9.28D-07 DE=-3.55D-11 OVMax= 2.82D-06

 Cycle  23  Pass 1  IDiag  1:
 RMSU=  3.94D-09    CP:  9.95D-01  1.04D+00  1.06D+00  1.14D+00  1.28D+00
                    CP:  1.48D+00  1.69D+00  1.30D+00
 E= -1507.84979614289     Delta-E=       -0.000000000030 Rises=F Damp=F
 DIIS: error= 1.30D-08 at cycle   9 NSaved=   9.
 NSaved= 9 IEnMin= 9 EnMin= -1507.84979614289     IErMin= 9 ErrMin= 1.30D-08
 ErrMax= 1.30D-08  0.00D+00 EMaxC= 1.00D-01 BMatC= 5.54D-13 BMatP= 4.82D-12
 IDIUse=1 WtCom= 1.00D+00 WtEn= 0.00D+00
 Coeff-Com: -0.135D-04 0.823D-03-0.244D-03 0.223D-04-0.950D-02-0.403D-01
 Coeff-Com: -0.254D-01 0.255D+00 0.819D+00
 Coeff:     -0.135D-04 0.823D-03-0.244D-03 0.223D-04-0.950D-02-0.403D-01
 Coeff:     -0.254D-01 0.255D+00 0.819D+00
 Gap=     0.121 Goal=   None    Shift=    0.000
 RMSDP=4.02D-09 MaxDP=3.61D-07 DE=-3.00D-11 OVMax= 1.33D-06

 SCF Done:  E(RM062X) =  -1507.84979614     A.U. after   23 cycles
            NFock= 23  Conv=0.40D-08     -V/T= 2.0038
 KE= 1.502072553769D+03 PE=-8.401401016332D+03 EE= 2.959924836513D+03
 Leave Link  502 at Sun Apr  9 11:11:22 2023, MaxMem=  2684354560 cpu:           22057.8 elap:            1379.0
 (Enter /opt/gaussian/g16/l601.exe)
 Copying SCF densities to generalized density rwf, IOpCl= 0 IROHF=0.

 **********************************************************************

            Population analysis using the SCF density.

 **********************************************************************

 Alpha  occ. eigenvalues --  -89.85617 -19.66360 -19.64245 -19.62719 -19.61565
 Alpha  occ. eigenvalues --  -19.55449 -14.86374 -14.78786 -10.67704 -10.65917
 Alpha  occ. eigenvalues --  -10.63679 -10.62701 -10.61438 -10.61291 -10.61179
 Alpha  occ. eigenvalues --  -10.59817 -10.59329 -10.58137 -10.58022 -10.55021
 Alpha  occ. eigenvalues --  -10.51659 -10.51561 -10.50422 -10.48546  -8.21594
 Alpha  occ. eigenvalues --   -6.13550  -6.13326  -6.13090  -1.21133  -1.19609
 Alpha  occ. eigenvalues --   -1.17200  -1.14541  -1.13854  -1.08854  -1.02945
 Alpha  occ. eigenvalues --   -0.97173  -0.92529  -0.89716  -0.87853  -0.87136
 Alpha  occ. eigenvalues --   -0.84459  -0.81338  -0.79593  -0.78175  -0.76143
 Alpha  occ. eigenvalues --   -0.72326  -0.70694  -0.69567  -0.68485  -0.66411
 Alpha  occ. eigenvalues --   -0.64653  -0.64418  -0.62326  -0.61694  -0.61063
 Alpha  occ. eigenvalues --   -0.59631  -0.57450  -0.56645  -0.56247  -0.55738
 Alpha  occ. eigenvalues --   -0.55132  -0.54249  -0.52993  -0.51828  -0.51078
 Alpha  occ. eigenvalues --   -0.50641  -0.50085  -0.49975  -0.49599  -0.48589
 Alpha  occ. eigenvalues --   -0.48421  -0.47978  -0.47130  -0.46733  -0.46026
 Alpha  occ. eigenvalues --   -0.45016  -0.44675  -0.43783  -0.42624  -0.42496
 Alpha  occ. eigenvalues --   -0.41274  -0.39770  -0.39438  -0.38343  -0.38088
 Alpha  occ. eigenvalues --   -0.37366  -0.36882  -0.36232  -0.35536  -0.35478
 Alpha  occ. eigenvalues --   -0.35312  -0.33678  -0.27646  -0.26609  -0.19196
 Alpha virt. eigenvalues --   -0.07048  -0.03802   0.03713   0.03933   0.04840
 Alpha virt. eigenvalues --    0.05257   0.07008   0.07104   0.08182   0.09044
 Alpha virt. eigenvalues --    0.09649   0.09723   0.10334   0.10889   0.10998
 Alpha virt. eigenvalues --    0.11470   0.11793   0.12535   0.13260   0.13775
 Alpha virt. eigenvalues --    0.14034   0.14421   0.14729   0.15146   0.15532
 Alpha virt. eigenvalues --    0.16047   0.16834   0.17043   0.17179   0.17513
 Alpha virt. eigenvalues --    0.18050   0.18825   0.19055   0.19317   0.19734
 Alpha virt. eigenvalues --    0.20305   0.20785   0.21042   0.21921   0.22518
 Alpha virt. eigenvalues --    0.22570   0.22823   0.23622   0.23906   0.24339
 Alpha virt. eigenvalues --    0.24653   0.25032   0.25635   0.25915   0.26573
 Alpha virt. eigenvalues --    0.26743   0.27289   0.27856   0.28026   0.28424
 Alpha virt. eigenvalues --    0.29221   0.30016   0.30179   0.30567   0.30800
 Alpha virt. eigenvalues --    0.31300   0.31890   0.31982   0.32129   0.32808
 Alpha virt. eigenvalues --    0.33297   0.33938   0.34385   0.34916   0.35241
 Alpha virt. eigenvalues --    0.36142   0.36674   0.37189   0.37312   0.37921
 Alpha virt. eigenvalues --    0.38269   0.38972   0.39429   0.39731   0.40159
 Alpha virt. eigenvalues --    0.40307   0.40577   0.41422   0.41489   0.41728
 Alpha virt. eigenvalues --    0.42368   0.42543   0.42871   0.43731   0.43884
 Alpha virt. eigenvalues --    0.44261   0.44663   0.45018   0.45497   0.45613
 Alpha virt. eigenvalues --    0.46119   0.46568   0.46902   0.46929   0.47270
 Alpha virt. eigenvalues --    0.47687   0.47802   0.48401   0.48597   0.48730
 Alpha virt. eigenvalues --    0.49261   0.49865   0.50300   0.50623   0.50767
 Alpha virt. eigenvalues --    0.51461   0.51582   0.52310   0.52440   0.52628
 Alpha virt. eigenvalues --    0.53068   0.53534   0.53917   0.53945   0.54454
 Alpha virt. eigenvalues --    0.54631   0.55338   0.55766   0.56541   0.56958
 Alpha virt. eigenvalues --    0.57339   0.57799   0.58518   0.58776   0.59050
 Alpha virt. eigenvalues --    0.59372   0.59708   0.60683   0.61052   0.62053
 Alpha virt. eigenvalues --    0.62313   0.62762   0.63474   0.64196   0.64914
 Alpha virt. eigenvalues --    0.65861   0.65992   0.66527   0.67512   0.68203
 Alpha virt. eigenvalues --    0.68263   0.68720   0.69437   0.69662   0.70414
 Alpha virt. eigenvalues --    0.71019   0.71321   0.71844   0.72646   0.73538
 Alpha virt. eigenvalues --    0.74148   0.74349   0.76038   0.76580   0.76917
 Alpha virt. eigenvalues --    0.77659   0.78069   0.78835   0.80274   0.80856
 Alpha virt. eigenvalues --    0.80993   0.82041   0.82374   0.83559   0.83896
 Alpha virt. eigenvalues --    0.84593   0.85134   0.85488   0.85796   0.86692
 Alpha virt. eigenvalues --    0.87614   0.87901   0.88664   0.89014   0.90131
 Alpha virt. eigenvalues --    0.90338   0.91375   0.92155   0.92171   0.92993
 Alpha virt. eigenvalues --    0.93248   0.94567   0.95101   0.95242   0.95964
 Alpha virt. eigenvalues --    0.96277   0.97464   0.97753   0.98686   0.99130
 Alpha virt. eigenvalues --    1.00091   1.00526   1.01152   1.02173   1.03412
 Alpha virt. eigenvalues --    1.03546   1.04469   1.04734   1.05089   1.05955
 Alpha virt. eigenvalues --    1.07049   1.07903   1.08390   1.08684   1.08968
 Alpha virt. eigenvalues --    1.10239   1.10489   1.11560   1.12440   1.13460
 Alpha virt. eigenvalues --    1.13617   1.13903   1.14518   1.14972   1.15153
 Alpha virt. eigenvalues --    1.16709   1.17216   1.17974   1.18029   1.18957
 Alpha virt. eigenvalues --    1.20203   1.21408   1.21729   1.22105   1.23087
 Alpha virt. eigenvalues --    1.23699   1.23965   1.25629   1.25924   1.26558
 Alpha virt. eigenvalues --    1.26962   1.28297   1.28770   1.30069   1.30320
 Alpha virt. eigenvalues --    1.30826   1.32180   1.32755   1.34374   1.34782
 Alpha virt. eigenvalues --    1.35077   1.36639   1.37058   1.38543   1.38853
 Alpha virt. eigenvalues --    1.39356   1.40172   1.41381   1.42403   1.44048
 Alpha virt. eigenvalues --    1.44453   1.45221   1.47047   1.48564   1.49172
 Alpha virt. eigenvalues --    1.50073   1.50408   1.51471   1.51917   1.52902
 Alpha virt. eigenvalues --    1.53294   1.53665   1.53816   1.55396   1.55860
 Alpha virt. eigenvalues --    1.56365   1.56709   1.57458   1.57867   1.58315
 Alpha virt. eigenvalues --    1.59058   1.59551   1.59894   1.60169   1.61411
 Alpha virt. eigenvalues --    1.61481   1.61935   1.62331   1.62611   1.62677
 Alpha virt. eigenvalues --    1.63693   1.64174   1.64292   1.65779   1.66299
 Alpha virt. eigenvalues --    1.67049   1.67336   1.67576   1.68021   1.68876
 Alpha virt. eigenvalues --    1.69252   1.69471   1.70193   1.71306   1.71597
 Alpha virt. eigenvalues --    1.72470   1.72829   1.73298   1.73794   1.74225
 Alpha virt. eigenvalues --    1.75499   1.75924   1.76110   1.77146   1.77932
 Alpha virt. eigenvalues --    1.78710   1.79605   1.80484   1.81124   1.81643
 Alpha virt. eigenvalues --    1.81957   1.82686   1.82849   1.84375   1.85622
 Alpha virt. eigenvalues --    1.86203   1.86553   1.87076   1.87960   1.89101
 Alpha virt. eigenvalues --    1.89246   1.89896   1.90408   1.90550   1.91086
 Alpha virt. eigenvalues --    1.92146   1.92447   1.93010   1.93242   1.93433
 Alpha virt. eigenvalues --    1.94756   1.94818   1.95962   1.96726   1.97478
 Alpha virt. eigenvalues --    1.97898   1.98460   1.99083   2.00139   2.00702
 Alpha virt. eigenvalues --    2.02442   2.02929   2.03437   2.05084   2.05221
 Alpha virt. eigenvalues --    2.05416   2.05809   2.06999   2.08035   2.08274
 Alpha virt. eigenvalues --    2.08911   2.09445   2.10209   2.10584   2.11699
 Alpha virt. eigenvalues --    2.12052   2.12794   2.13927   2.14722   2.15051
 Alpha virt. eigenvalues --    2.15424   2.15923   2.17363   2.17921   2.18841
 Alpha virt. eigenvalues --    2.19409   2.19861   2.20731   2.21652   2.21887
 Alpha virt. eigenvalues --    2.22250   2.23047   2.23874   2.24993   2.25767
 Alpha virt. eigenvalues --    2.26858   2.27482   2.27791   2.28388   2.28704
 Alpha virt. eigenvalues --    2.29372   2.30103   2.30511   2.31021   2.31752
 Alpha virt. eigenvalues --    2.32312   2.32590   2.33780   2.33929   2.34744
 Alpha virt. eigenvalues --    2.35347   2.37687   2.37952   2.38568   2.39515
 Alpha virt. eigenvalues --    2.40807   2.41185   2.41645   2.43503   2.43764
 Alpha virt. eigenvalues --    2.44812   2.45515   2.45876   2.46046   2.46750
 Alpha virt. eigenvalues --    2.47016   2.47563   2.48125   2.48825   2.49886
 Alpha virt. eigenvalues --    2.51305   2.52364   2.53387   2.53608   2.54347
 Alpha virt. eigenvalues --    2.55760   2.56962   2.57192   2.58122   2.58302
 Alpha virt. eigenvalues --    2.59500   2.59856   2.60211   2.61131   2.61422
 Alpha virt. eigenvalues --    2.61952   2.62238   2.62955   2.63972   2.64949
 Alpha virt. eigenvalues --    2.65190   2.66280   2.67436   2.67972   2.68701
 Alpha virt. eigenvalues --    2.68755   2.69356   2.70094   2.70595   2.71002
 Alpha virt. eigenvalues --    2.71235   2.72263   2.72888   2.73664   2.73884
 Alpha virt. eigenvalues --    2.74728   2.75518   2.75928   2.76606   2.77635
 Alpha virt. eigenvalues --    2.77988   2.78593   2.79890   2.80071   2.81067
 Alpha virt. eigenvalues --    2.81110   2.81303   2.82450   2.83532   2.84358
 Alpha virt. eigenvalues --    2.85003   2.85293   2.85635   2.86610   2.87590
 Alpha virt. eigenvalues --    2.88320   2.88747   2.90093   2.91234   2.92313
 Alpha virt. eigenvalues --    2.92831   2.93789   2.94039   2.94627   2.95588
 Alpha virt. eigenvalues --    2.97017   2.97836   2.98430   2.98948   2.99529
 Alpha virt. eigenvalues --    3.00674   3.01262   3.01535   3.02109   3.02656
 Alpha virt. eigenvalues --    3.03432   3.04213   3.04837   3.05667   3.06390
 Alpha virt. eigenvalues --    3.06776   3.07569   3.07872   3.08400   3.09468
 Alpha virt. eigenvalues --    3.10509   3.11000   3.11142   3.12021   3.12693
 Alpha virt. eigenvalues --    3.13141   3.13554   3.14242   3.14714   3.15358
 Alpha virt. eigenvalues --    3.16295   3.16904   3.17072   3.18386   3.18696
 Alpha virt. eigenvalues --    3.18813   3.19490   3.20289   3.20340   3.20633
 Alpha virt. eigenvalues --    3.21659   3.22537   3.23519   3.23892   3.24420
 Alpha virt. eigenvalues --    3.24795   3.25765   3.26341   3.27407   3.27759
 Alpha virt. eigenvalues --    3.28668   3.29221   3.29797   3.30439   3.31021
 Alpha virt. eigenvalues --    3.32046   3.32131   3.32688   3.32862   3.33466
 Alpha virt. eigenvalues --    3.34694   3.35193   3.35380   3.36466   3.37183
 Alpha virt. eigenvalues --    3.37340   3.37731   3.38599   3.38773   3.39193
 Alpha virt. eigenvalues --    3.39466   3.40222   3.40459   3.41347   3.41705
 Alpha virt. eigenvalues --    3.42635   3.42908   3.43542   3.44902   3.45558
 Alpha virt. eigenvalues --    3.45650   3.46182   3.47197   3.47884   3.48491
 Alpha virt. eigenvalues --    3.48806   3.49302   3.50322   3.51378   3.52153
 Alpha virt. eigenvalues --    3.52959   3.53102   3.53580   3.54423   3.55361
 Alpha virt. eigenvalues --    3.55834   3.56715   3.57630   3.58349   3.59036
 Alpha virt. eigenvalues --    3.59585   3.61073   3.62542   3.63162   3.64872
 Alpha virt. eigenvalues --    3.65944   3.66178   3.68782   3.69227   3.69652
 Alpha virt. eigenvalues --    3.70975   3.71722   3.72442   3.73594   3.74689
 Alpha virt. eigenvalues --    3.74982   3.75648   3.76014   3.77445   3.78241
 Alpha virt. eigenvalues --    3.79530   3.80135   3.82123   3.82835   3.83794
 Alpha virt. eigenvalues --    3.84882   3.85666   3.86592   3.87789   3.88568
 Alpha virt. eigenvalues --    3.89255   3.90362   3.91596   3.92915   3.93282
 Alpha virt. eigenvalues --    3.94298   3.95070   3.96383   3.97746   3.99586
 Alpha virt. eigenvalues --    4.00594   4.01007   4.03707   4.04756   4.06130
 Alpha virt. eigenvalues --    4.06941   4.07082   4.08465   4.10475   4.10888
 Alpha virt. eigenvalues --    4.11463   4.12860   4.14140   4.15591   4.18343
 Alpha virt. eigenvalues --    4.18833   4.19663   4.21772   4.23472   4.25252
 Alpha virt. eigenvalues --    4.26459   4.27022   4.28152   4.29401   4.30343
 Alpha virt. eigenvalues --    4.31520   4.32268   4.32943   4.34150   4.35500
 Alpha virt. eigenvalues --    4.37781   4.38501   4.40001   4.40690   4.41101
 Alpha virt. eigenvalues --    4.44107   4.44177   4.45815   4.46480   4.47999
 Alpha virt. eigenvalues --    4.49301   4.50558   4.53769   4.54247   4.56961
 Alpha virt. eigenvalues --    4.59838   4.61098   4.62309   4.65696   4.67402
 Alpha virt. eigenvalues --    4.69382   4.71944   4.73802   4.74736   4.75840
 Alpha virt. eigenvalues --    4.77214   4.78319   4.80219   4.80518   4.81946
 Alpha virt. eigenvalues --    4.84176   4.86067   4.88203   4.89281   4.90368
 Alpha virt. eigenvalues --    4.91658   4.92602   4.95254   4.96331   4.96980
 Alpha virt. eigenvalues --    4.98237   4.98638   5.01070   5.01894   5.04743
 Alpha virt. eigenvalues --    5.06112   5.07796   5.11462   5.15254   5.18436
 Alpha virt. eigenvalues --    5.19944   5.22121   5.24664   5.27474   5.28988
 Alpha virt. eigenvalues --    5.29070   5.29155   5.29762   5.31336   5.36366
 Alpha virt. eigenvalues --    5.38809   5.40993   5.43092   5.44722   5.46607
 Alpha virt. eigenvalues --    5.48222   5.49913   5.52736   5.54223   5.59291
 Alpha virt. eigenvalues --    5.62293   5.63041   5.70780   5.74106   5.75796
 Alpha virt. eigenvalues --    5.76935   5.79066   5.81448   5.82601   5.83733
 Alpha virt. eigenvalues --    5.84747   5.86294   5.87906   5.90115   5.94165
 Alpha virt. eigenvalues --    5.97420   6.00529   6.06138   6.17201   6.18259
 Alpha virt. eigenvalues --    6.22045   6.23804   6.27393   6.31098   6.36819
 Alpha virt. eigenvalues --    6.39965   6.40805   6.50547   6.51756   6.54118
 Alpha virt. eigenvalues --    6.55330   6.62771   6.69047   6.72121   6.72528
 Alpha virt. eigenvalues --    6.75361   6.78511   6.83130   6.84250   6.85885
 Alpha virt. eigenvalues --    6.89178   6.91178   6.98854   7.05074   7.06151
 Alpha virt. eigenvalues --    7.07974   7.09773   7.11792   7.16586   7.23087
 Alpha virt. eigenvalues --    7.26568   7.31565   9.04619   9.44328   9.57863
 Alpha virt. eigenvalues --   19.93525  22.34913  22.44428  22.56300  22.57960
 Alpha virt. eigenvalues --   22.62584  22.68818  22.70101  22.76648  22.79582
 Alpha virt. eigenvalues --   22.82616  22.91384  22.94053  23.06707  23.16110
 Alpha virt. eigenvalues --   23.22474  23.37671  32.08975  33.14858  44.11211
 Alpha virt. eigenvalues --   44.21231  44.22744  44.28069  44.48813
          Condensed to atoms (all electrons):
               1          2          3          4          5          6
     1  C    5.103060   0.424196   0.418497  -0.007098   0.000550  -0.000380
     2  H    0.424196   0.510137  -0.022326  -0.001089   0.000229  -0.000003
     3  H    0.418497  -0.022326   0.533145   0.001657  -0.000020  -0.000006
     4  C   -0.007098  -0.001089   0.001657   5.398707   0.493013   0.294591
     5  H    0.000550   0.000229  -0.000020   0.493013   0.557182  -0.032916
     6  O   -0.000380  -0.000003  -0.000006   0.294591  -0.032916   8.042970
     7  H   -0.000064  -0.000004   0.000004  -0.036109  -0.013347   0.275450
     8  C    0.013942   0.012863  -0.009547  -0.039039  -0.066086  -0.057640
     9  H    0.011287   0.000126  -0.002329  -0.099574   0.001519   0.004298
    10  O    0.006849  -0.000371   0.000287  -0.041170   0.001430  -0.009578
    11  H   -0.001436  -0.000121   0.000472   0.015655  -0.000745  -0.000499
    12  C   -0.004865  -0.000108   0.000613  -0.002622  -0.101487  -0.038543
    13  H    0.000086   0.000012   0.000102  -0.083529   0.006800   0.009942
    14  C    0.166615  -0.050166  -0.041952   0.123259   0.014013   0.006668
    15  H   -0.069037  -0.007252  -0.003369  -0.007445   0.000014   0.000115
    16  O   -0.028332   0.000805   0.005033  -0.057667   0.002125   0.005113
    17  N    0.000030  -0.000053  -0.000034   0.009690  -0.011453  -0.003192
    18  C   -0.001022   0.000005   0.000023  -0.009766  -0.002054   0.003512
    19  H   -0.000042  -0.000039   0.000026  -0.007543  -0.000234   0.000699
    20  C    0.000051  -0.000002  -0.000001   0.005986   0.007065  -0.001361
    21  H    0.000003   0.000000  -0.000000  -0.000006   0.000133  -0.000020
    22  C   -0.000016   0.000001   0.000000   0.001637  -0.000626   0.000152
    23  H   -0.000000   0.000000  -0.000000   0.000023  -0.000002   0.000001
    24  H    0.000000  -0.000000   0.000000  -0.000197  -0.000100  -0.000014
    25  C   -0.000054  -0.000005   0.000001  -0.009114   0.000124  -0.000312
    26  C   -0.000349   0.000047  -0.000005   0.014245  -0.001838  -0.004773
    27  H   -0.000020   0.000001  -0.000000   0.000589  -0.000118  -0.000093
    28  C    0.000000  -0.000000  -0.000000  -0.000036   0.000010  -0.000006
    29  O   -0.000000   0.000000  -0.000000   0.000007  -0.000000  -0.000000
    30  N   -0.000000   0.000000   0.000000  -0.000000  -0.000000   0.000000
    31  H   -0.000000   0.000000   0.000000   0.000000   0.000000  -0.000000
    32  H    0.000000   0.000000  -0.000000   0.000000   0.000000   0.000000
    33  C    0.000001  -0.000000   0.000000   0.000145  -0.000371  -0.014646
    34  C    0.000001  -0.000000   0.000000   0.001640   0.000381   0.009060
    35  C    0.000000   0.000000  -0.000000  -0.000177   0.000220   0.001056
    36  C   -0.000000   0.000000   0.000000   0.000005   0.000000  -0.000000
    37  C   -0.000000   0.000000   0.000000   0.000007   0.000023  -0.000002
    38  O   -0.000000   0.000000   0.000000   0.003307  -0.000119  -0.036493
    39  S   -0.000000  -0.000000  -0.000000  -0.000107   0.000012   0.000817
    40  H   -0.000000   0.000000  -0.000000   0.000126   0.000033   0.000207
    41  H   -0.000003   0.000000  -0.000000  -0.000288   0.000408   0.008712
    42  H    0.000000  -0.000000   0.000000  -0.000000  -0.000000  -0.000000
    43  H    0.000000  -0.000000  -0.000000   0.000000  -0.000000   0.000000
    44  H    0.000000  -0.000000  -0.000000  -0.000000  -0.000000   0.000000
    45  H   -0.000000   0.000000   0.000000   0.000003   0.000006   0.000026
    46  H    0.000000  -0.000000  -0.000000  -0.000003  -0.000000   0.000022
    47  H    0.378480  -0.023267  -0.024947   0.000778  -0.000216   0.000027
    48  H    0.000000   0.000000  -0.000000  -0.000035   0.000002   0.000218
               7          8          9         10         11         12
     1  C   -0.000064   0.013942   0.011287   0.006849  -0.001436  -0.004865
     2  H   -0.000004   0.012863   0.000126  -0.000371  -0.000121  -0.000108
     3  H    0.000004  -0.009547  -0.002329   0.000287   0.000472   0.000613
     4  C   -0.036109  -0.039039  -0.099574  -0.041170   0.015655  -0.002622
     5  H   -0.013347  -0.066086   0.001519   0.001430  -0.000745  -0.101487
     6  O    0.275450  -0.057640   0.004298  -0.009578  -0.000499  -0.038543
     7  H    0.356426   0.010866  -0.000386  -0.000721   0.000191   0.008133
     8  C    0.010866   5.475467   0.516821   0.303934  -0.046090  -0.008203
     9  H   -0.000386   0.516821   0.573436  -0.053269  -0.007523   0.012328
    10  O   -0.000721   0.303934  -0.053269   7.982134   0.294453  -0.023312
    11  H    0.000191  -0.046090  -0.007523   0.294453   0.429914  -0.001774
    12  C    0.008133  -0.008203   0.012328  -0.023312  -0.001774   5.548594
    13  H   -0.001091   0.013099   0.002506   0.015402  -0.001097   0.430121
    14  C   -0.000733   0.012049  -0.128075  -0.063064   0.002935  -0.089916
    15  H    0.000071  -0.042761   0.010194   0.000041   0.003110   0.000106
    16  O    0.000155  -0.030466   0.005317   0.008455  -0.000017   0.249162
    17  N    0.005128   0.000760  -0.000627  -0.000081   0.000011   0.223452
    18  C   -0.001094  -0.003099  -0.000155  -0.000196   0.000010  -0.093439
    19  H    0.000199   0.001061  -0.000040   0.000003   0.000002   0.009249
    20  C   -0.001723  -0.001453   0.000052   0.000011  -0.000002   0.017582
    21  H   -0.000016  -0.000010   0.000001   0.000000  -0.000000   0.000417
    22  C    0.000451   0.000001  -0.000007  -0.000004   0.000000  -0.020553
    23  H   -0.000008   0.000000  -0.000000  -0.000000   0.000000  -0.000103
    24  H    0.000451   0.000025  -0.000000  -0.000000   0.000000   0.001860
    25  C    0.000837  -0.000391   0.000003  -0.000016  -0.000001  -0.000524
    26  C   -0.001927  -0.004085  -0.000106  -0.000483  -0.000039  -0.076446
    27  H    0.000065  -0.000127  -0.000009  -0.000134   0.000005  -0.002394
[...]
      4        6           0.002126749   -0.003386142   -0.000239116
      5        1           0.004852250    0.005084390   -0.000244412
      6        8           0.001614841   -0.006917081   -0.012763273
      7        1          -0.007899051    0.004818242    0.003558127
      8        6          -0.012011253   -0.005106058   -0.006777831
      9        1           0.000588654    0.005599759   -0.002664740
     10        8           0.006673011   -0.001465704   -0.001363000
     11        1          -0.001510079    0.001681939    0.000526867
     12        6           0.009896714   -0.005445612    0.007385131
     13        1          -0.004629712   -0.000096601   -0.003334453
     14        6           0.002119177    0.000719233    0.008170621
     15        1          -0.003019233    0.002342371    0.001272230
     16        8          -0.006189919    0.003138490    0.006598950
     17        7           0.010835054    0.000104747    0.001689727
     18        6          -0.002580088   -0.003327814    0.001171988
     19        1           0.004683612    0.001001040    0.001798453
     20        6          -0.002027409   -0.009816069    0.002332129
     21        1           0.000319527   -0.002911940   -0.000182522
     22        6           0.001079948    0.012155443   -0.004297496
     23        1          -0.002191410    0.001212041   -0.002081178
     24        1          -0.001928861    0.001226913    0.003704449
     25        6          -0.013862328    0.003378137   -0.004874282
     26        6           0.001719073    0.003250668    0.004952267
     27        1           0.002546223   -0.001094698    0.002613266
     28        6          -0.015829403   -0.002506137   -0.002439455
     29        8           0.001419145   -0.000741616   -0.004298206
     30        7           0.026157698   -0.002518527   -0.003440529
     31        1          -0.002966149   -0.005234665    0.008355457
     32        1          -0.002749703    0.006474303    0.006689896
     33        6          -0.002132041   -0.011221111   -0.000977968
     34        6           0.004753211   -0.027343008    0.014651177
     35        6          -0.012419989    0.001175705   -0.020278349
     36        6          -0.002639186    0.000462014   -0.002074689
     37        6           0.006436459   -0.010922001    0.009624656
     38        8           0.001784613    0.009398257   -0.009422475
     39       16           0.014241090    0.014498531    0.007477531
     40        1           0.001784991    0.000395540    0.000844107
     41        1           0.001220796    0.001247132    0.003945264
     42        1          -0.003767282    0.000652737   -0.003139679
     43        1           0.000277703    0.004389332   -0.002271779
     44        1          -0.002412891    0.003797592    0.000370762
     45        1           0.003433253   -0.001523542   -0.003732997
     46        1          -0.000071366    0.004608611   -0.000278372
     47        1           0.000651407   -0.001875094   -0.000424151
     48        1          -0.002697552    0.004348318   -0.004737374
 -------------------------------------------------------------------
 Cartesian Forces:  Max     0.027343008 RMS     0.006502534
 Leave Link  716 at Sun Apr  9 11:16:04 2023, MaxMem=  2684354560 cpu:               0.5 elap:               0.0
 (Enter /opt/gaussian/g16/l103.exe)

 GradGradGradGradGradGradGradGradGradGradGradGradGradGradGradGradGradGrad
 Berny optimization.
 Search for a local minimum.
 Step number   1 out of a maximum of    2
 All quantities printed in internal units (Hartrees-Bohrs-Radians)
 Second derivative matrix not updated -- first step.
 ITU=  0
     Eigenvalues ---    0.00045   0.00101   0.00114   0.00137   0.00172
     Eigenvalues ---    0.00304   0.00342   0.00397   0.00486   0.00540
     Eigenvalues ---    0.00645   0.00702   0.00808   0.00980   0.01030
     Eigenvalues ---    0.01092   0.01203   0.01373   0.01405   0.01570
     Eigenvalues ---    0.01730   0.02011   0.02380   0.02456   0.02599
     Eigenvalues ---    0.03050   0.03221   0.03672   0.04008   0.04240
     Eigenvalues ---    0.04457   0.04626   0.04821   0.05010   0.05148
     Eigenvalues ---    0.05212   0.05444   0.05516   0.05777   0.06034
     Eigenvalues ---    0.06113   0.06297   0.06700   0.07016   0.07123
     Eigenvalues ---    0.07168   0.07562   0.07753   0.08219   0.08391
     Eigenvalues ---    0.08548   0.08798   0.09409   0.09685   0.09910
     Eigenvalues ---    0.10961   0.11306   0.11545   0.11959   0.12094
     Eigenvalues ---    0.13023   0.13136   0.13618   0.13774   0.13968
     Eigenvalues ---    0.14241   0.14405   0.15363   0.15739   0.16156
     Eigenvalues ---    0.16659   0.17752   0.18078   0.18691   0.19378
     Eigenvalues ---    0.20733   0.21161   0.21896   0.22395   0.26614
     Eigenvalues ---    0.26647   0.27775   0.28874   0.29257   0.33196
     Eigenvalues ---    0.33483   0.33744   0.34989   0.36894   0.37581
     Eigenvalues ---    0.37581   0.37581   0.37581   0.37581   0.42008
     Eigenvalues ---    0.44198   0.47967   0.48608   0.54288   0.59918
     Eigenvalues ---    0.60672   0.60833   0.67209   0.72977   0.73444
     Eigenvalues ---    0.79344   0.80169   0.83692   0.87745   0.89627
     Eigenvalues ---    0.90354   0.91921   0.93006   0.94648   0.95263
     Eigenvalues ---    0.97509   0.98387   0.98977   1.02358   1.03023
     Eigenvalues ---    1.05860   1.07360   1.08739   1.09343   1.12049
     Eigenvalues ---    1.13688   1.17876   1.22255   1.28534   1.31890
     Eigenvalues ---    1.33155   1.34651   1.36647   1.56938   1.74446
     Eigenvalues ---    1.76783   1.92031   2.36400
 Quadratic step=3.694D+00 exceeds max=3.000D-01 adjusted using Lamda=-3.519D-02.
 Angle between NR and scaled steps=  61.32 degrees.
 Angle between quadratic step and forces=  56.33 degrees.
 Linear search not attempted -- first point.
 Variable       Old X    -DE/DX   Delta X   Delta X   Delta X     New X
                                 (Linear)    (Quad)   (Total)
    X1        6.55095  -0.00613   0.00000  -0.02476  -0.02476   6.52619
    Y1       -6.88448   0.01417   0.00000   0.03051   0.03051  -6.85398
    Z1       -1.32948  -0.00105   0.00000  -0.00564  -0.00564  -1.33513
    X2        6.71737  -0.00027   0.00000  -0.02053  -0.02053   6.69684
    Y2       -7.19280  -0.00370   0.00000  -0.01359  -0.01359  -7.20639
    Z2       -3.35272  -0.00121   0.00000  -0.00406  -0.00406  -3.35678
    X3        8.25101   0.00072   0.00000  -0.02995  -0.02995   8.22106
    Y3       -7.55336  -0.00418   0.00000  -0.01927  -0.01927  -7.57263
    Z3       -0.39337   0.00087   0.00000  -0.01051  -0.01051  -0.40388
    X4        3.04925   0.00213   0.00000  -0.00166  -0.00166   3.04759
    Y4       -2.34728  -0.00339   0.00000   0.00163   0.00163  -2.34564
    Z4        1.85005  -0.00024   0.00000  -0.01560  -0.01560   1.83446
    X5        1.76143   0.00485   0.00000   0.02414   0.02414   1.78557
    Y5       -4.00060   0.00508   0.00000   0.00689   0.00689  -3.99371
    Z5        1.79290  -0.00024   0.00000  -0.02363  -0.02363   1.76928
    X6        2.54061   0.00161   0.00000  -0.03861  -0.03861   2.50200
    Y6       -0.76341  -0.00692   0.00000   0.00407   0.00407  -0.75934
    Z6        3.87523  -0.01276   0.00000  -0.04660  -0.04660   3.82863
    X7        0.79416  -0.00790   0.00000  -0.04704  -0.04704   0.74711
    Y7       -0.16415   0.00482   0.00000   0.02471   0.02471  -0.13944
    Z7        3.78741   0.00356   0.00000   0.00385   0.00385   3.79126
    X8        5.80587  -0.01201   0.00000  -0.01995  -0.01995   5.78592
    Y8       -3.32725  -0.00511   0.00000   0.01093   0.01093  -3.31632
    Z8        1.95784  -0.00678   0.00000  -0.01499  -0.01499   1.94285
    X9        5.95391   0.00059   0.00000  -0.00052  -0.00052   5.95339
    Y9       -4.99455   0.00560   0.00000   0.02947   0.02947  -4.96508
    Z9        3.20078  -0.00266   0.00000  -0.01636  -0.01636   3.18442
   X10        7.28625   0.00667   0.00000   0.01820   0.01820   7.30445
   Y10       -1.30893  -0.00147   0.00000  -0.00145  -0.00145  -1.31038
   Z10        2.81623  -0.00136   0.00000  -0.03075  -0.03075   2.78548
   X11        9.01956  -0.00151   0.00000   0.01245   0.01245   9.03201
   Y11       -1.85964   0.00168   0.00000  -0.00704  -0.00704  -1.86667
   Z11        2.90594   0.00053   0.00000  -0.01695  -0.01695   2.88899
   X12        3.10421   0.00990   0.00000   0.01167   0.01167   3.11588
   Y12       -1.11557  -0.00545   0.00000   0.00516   0.00516  -1.11041
   Z12       -0.81577   0.00739   0.00000   0.01798   0.01798  -0.79780
   X13        4.22414  -0.00463   0.00000  -0.01160  -0.01160   4.21254
   Y13        0.62334  -0.00010   0.00000   0.01394   0.01394   0.63727
   Z13       -0.64267  -0.00333   0.00000  -0.02504  -0.02504  -0.66771
   X14        6.34948   0.00212   0.00000  -0.01492  -0.01492   6.33456
   Y14       -4.05267   0.00072   0.00000   0.01812   0.01812  -4.03455
   Z14       -0.85548   0.00817   0.00000   0.01379   0.01379  -0.84169
   X15        8.14453  -0.00302   0.00000  -0.03074  -0.03074   8.11379
   Y15       -3.17995   0.00234   0.00000   0.03933   0.03933  -3.14062
   Z15       -1.42576   0.00127   0.00000   0.01027   0.01027  -1.41549
   X16        4.35490  -0.00619   0.00000  -0.03036  -0.03036   4.32454
   Y16       -2.94366   0.00314   0.00000  -0.00021  -0.00021  -2.94388
   Z16       -2.33999   0.00660   0.00000   0.02799   0.02799  -2.31200
   X17        0.66991   0.01084   0.00000   0.01290   0.01290   0.68282
   Y17       -0.47798   0.00010   0.00000   0.00543   0.00543  -0.47255
   Z17       -1.95401   0.00169   0.00000   0.02260   0.02260  -1.93141
   X18       -1.22541  -0.00258   0.00000   0.01200   0.01200  -1.21341
   Y18       -2.22549  -0.00333   0.00000  -0.00545  -0.00545  -2.23094
   Z18       -2.02573   0.00117   0.00000   0.01656   0.01656  -2.00916
   X19       -0.85891   0.00468   0.00000   0.06092   0.06092  -0.79799
   Y19       -4.07665   0.00100   0.00000   0.00573   0.00573  -4.07092
   Z19       -1.26230   0.00180   0.00000   0.02225   0.02225  -1.24005
   X20       -3.50005  -0.00203   0.00000   0.00092   0.00092  -3.49914
   Y20       -1.64048  -0.00982   0.00000  -0.02628  -0.02628  -1.66677
   Z20       -3.03002   0.00233   0.00000   0.00449   0.00449  -3.02552
   X21       -5.01057   0.00032   0.00000   0.02066   0.02066  -4.98991
   Y21       -3.00508  -0.00291   0.00000  -0.05190  -0.05190  -3.05698
   Z21       -2.97364  -0.00018   0.00000  -0.00859  -0.00859  -2.98223
   X22       -3.92957   0.00108   0.00000  -0.01949  -0.01949  -3.94906
   Y22        0.75410   0.01216   0.00000  -0.00155  -0.00155   0.75255
   Z22       -4.03493  -0.00430   0.00000   0.00050   0.00050  -4.03443
   X23       -5.70545  -0.00219   0.00000  -0.01265  -0.01265  -5.71810
   Y23        1.18456   0.00121   0.00000  -0.00222  -0.00222   1.18233
   Z23       -4.92859  -0.00208   0.00000  -0.02549  -0.02549  -4.95408
   X24       -5.21854  -0.00193   0.00000  -0.01422  -0.01422  -5.23276
   Y24        2.41567   0.00123   0.00000  -0.01522  -0.01522   2.40045
   Z24       -1.26243   0.00370   0.00000   0.01522   0.01522  -1.24721
   X25       -1.87670  -0.01386   0.00000  -0.03464  -0.03464  -1.91134
   Y25        2.44298   0.00338   0.00000   0.00892   0.00892   2.45190
   Z25       -4.19630  -0.00487   0.00000   0.03122   0.03122  -4.16507
   X26        0.34342   0.00172   0.00000  -0.01788  -0.01788   0.32554
   Y26        1.81095   0.00325   0.00000   0.01638   0.01638   1.82732
   Z26       -3.05728   0.00495   0.00000   0.04427   0.04427  -3.01301
   X27        1.89626   0.00255   0.00000   0.00242   0.00242   1.89868
   Y27        3.13501  -0.00109   0.00000  -0.00124  -0.00124   3.13377
   Z27       -3.04397   0.00261   0.00000   0.04874   0.04874  -2.99523
   X28       -2.19196  -0.01583   0.00000  -0.01486  -0.01486  -2.20682
   Y28        5.01360  -0.00251   0.00000  -0.00844  -0.00844   5.00515
   Z28       -5.39695  -0.00244   0.00000   0.02506   0.02506  -5.37189
   X29       -0.93524   0.00142   0.00000   0.02543   0.02543  -0.90981
   Y29        6.80581  -0.00074   0.00000  -0.01700  -0.01700   6.78881
   Z29       -4.79300  -0.00430   0.00000  -0.03771  -0.03771  -4.83071
   X30       -4.23199   0.02616   0.00000   0.07599   0.07599  -4.15600
   Y30        5.16212  -0.00252   0.00000  -0.01633  -0.01633   5.14580
   Z30       -7.13070  -0.00344   0.00000  -0.01195  -0.01195  -7.14265
   X31       -4.06938  -0.00297   0.00000   0.02255   0.02255  -4.04683
   Y31        6.74028  -0.00523   0.00000  -0.00468  -0.00468   6.73560
   Z31       -8.23795   0.00836   0.00000   0.03100   0.03100  -8.20696
   X32       -4.39329  -0.00275   0.00000   0.00260   0.00260  -4.39070
   Y32        3.58168   0.00647   0.00000  -0.00718  -0.00718   3.57449
   Z32       -8.23143   0.00669   0.00000   0.01930   0.01930  -8.21213
   X33        1.23978  -0.00213   0.00000  -0.01223  -0.01223   1.22755
   Y33        4.04601  -0.01122   0.00000  -0.02670  -0.02670   4.01931
   Z33        7.21115  -0.00098   0.00000   0.01968   0.01968   7.23083
   X34       -2.06603   0.00475   0.00000   0.03539   0.03539  -2.03064
   Y34        3.81487  -0.02734   0.00000  -0.01543  -0.01543   3.79944
   Z34        3.18548   0.01465   0.00000  -0.01520  -0.01520   3.17027
   X35       -3.44930  -0.01242   0.00000  -0.00041  -0.00041  -3.44970
   Y35        4.98198   0.00118   0.00000  -0.00896  -0.00896   4.97302
   Z35        1.32870  -0.02028   0.00000  -0.03452  -0.03452   1.29418
   X36       -7.38671  -0.00264   0.00000  -0.02076  -0.02076  -7.40747
   Y36        5.83851   0.00046   0.00000   0.00394   0.00394   5.84246
   Z36       -1.14909  -0.00207   0.00000  -0.00292  -0.00292  -1.15201
   X37       -5.73755   0.00644   0.00000  -0.00307  -0.00307  -5.74062
   Y37        3.92312  -0.01092   0.00000  -0.02339  -0.02339   3.89972
   Z37        0.18423   0.00962   0.00000   0.00772   0.00772   0.19195
   X38       -2.21326   0.00178   0.00000   0.05316   0.05316  -2.16011
   Y38        1.55554   0.00940   0.00000  -0.02116  -0.02116   1.53438
   Z38        3.95459  -0.00942   0.00000  -0.07589  -0.07589   3.87870
   X39        0.08578   0.01424   0.00000   0.03169   0.03169   0.11747
   Y39        5.92410   0.01450   0.00000   0.02699   0.02699   5.95109
   Z39        4.63083   0.00748   0.00000   0.03959   0.03959   4.67042
   X40       -0.38032   0.00178   0.00000  -0.00440  -0.00440  -0.38473
   Y40        3.29534   0.00040   0.00000  -0.01740  -0.01740   3.27794
   Z40        8.23795   0.00084   0.00000   0.02949   0.02949   8.26744
   X41        2.32755   0.00122   0.00000   0.02904   0.02904   2.35659
   Y41        2.47503   0.00125   0.00000  -0.01029  -0.01029   2.46474
   Z41        6.45125   0.00395   0.00000   0.06110   0.06110   6.51235
   X42       -8.04552  -0.00377   0.00000  -0.05537  -0.05537  -8.10089
   Y42        5.10353   0.00065   0.00000   0.01919   0.01919   5.12271
   Z42       -2.94809  -0.00314   0.00000  -0.00563  -0.00563  -2.95372
   X43       -6.32835   0.00028   0.00000  -0.01321  -0.01321  -6.34156
   Y43        7.55336   0.00439   0.00000   0.00910   0.00910   7.56246
   Z43       -1.51807  -0.00227   0.00000  -0.02707  -0.02707  -1.54514
   X44       -9.01956  -0.00241   0.00000  -0.01110  -0.01110  -9.03066
   Y44        6.29642   0.00380   0.00000   0.05161   0.05161   6.34803
   Z44        0.00354   0.00037   0.00000   0.00261   0.00261   0.00616
   X45       -6.82028   0.00343   0.00000   0.02702   0.02702  -6.79326
   Y45        2.84987  -0.00152   0.00000  -0.04178  -0.04178   2.80809
   Z45        1.59750  -0.00373   0.00000  -0.00045  -0.00045   1.59705
   X46       -2.86876  -0.00007   0.00000  -0.03038  -0.03038  -2.89914
   Y46        6.85003   0.00461   0.00000   0.02069   0.02069   6.87071
   Z46        0.76184  -0.00028   0.00000  -0.00761  -0.00761   0.75423
   X47        4.89214   0.00065   0.00000  -0.01128  -0.01128   4.88086
   Y47       -7.86293  -0.00188   0.00000   0.00415   0.00415  -7.85878
   Z47       -0.59888  -0.00042   0.00000  -0.01011  -0.01011  -0.60899
   X48        2.43187  -0.00270   0.00000  -0.04411  -0.04411   2.38776
   Y48        5.14367   0.00435   0.00000   0.03953   0.03953   5.18320
   Z48        8.48270  -0.00474   0.00000  -0.01435  -0.01435   8.46835
         Item               Value     Threshold  Converged?
 Maximum Force            0.027343     0.000450     NO 
 RMS     Force            0.006503     0.000300     NO 
 Maximum Displacement     0.075991     0.001800     NO 
 RMS     Displacement     0.025002     0.001200     NO 
 Predicted change in Energy=-8.073163D-03
 GradGradGradGradGradGradGradGradGradGradGradGradGradGradGradGradGradGrad

 Leave Link  103 at Sun Apr  9 11:16:05 2023, MaxMem=  2684354560 cpu:               1.1 elap:               0.1
 (Enter /opt/gaussian/g16/l9999.exe)

 Test job not archived.
 1\1\GINC-JULIO-SYS\Force\RM062X\def2TZVP\C16H24N2O5S1\JVELAZQUEZ\09-Ap
 r-2023\0\\#P M062X/Def2TZVP scf=(direct,conver=8) EmpiricalDispersion=
 GD3 NoSymm Force pop=(NBORead) Charge Prop=(Field,Read)\\Gaussian run 
 using SANDER external interface, route from template gau_job.tpl\\0,1\
 C,3.4666114536,-3.6431123825,-0.7035325799\H,3.554678224,-3.8062678076
 ,-1.7741821183\H,4.3662457824,-3.9970648052,-0.2081604553\C,1.61359498
 76,-1.2421257435,0.9790056808\H,0.93211008,-2.1170253591,0.9487626963\
 O,1.3444334832,-0.4039776356,2.0506833983\H,0.4202487983,-0.086866919,
 2.004210626\C,3.0723323569,-1.7607058773,1.0360459424\H,3.1506732262,-
 2.6430041077,1.6937794492\O,3.8557176597,-0.6926570772,1.4902849799\H,
 4.7729447663,-0.9840767006,1.5377583346\C,1.6426775965,-0.5903337584,-
 0.4316875116\H,2.2353184665,0.3298566597,-0.3400858912\C,3.3599998608,
 -2.1445785658,-0.4526998971\H,4.3099019987,-1.6827548254,-0.7544822951
 \O,2.3045159933,-1.557720162,-1.2382700326\N,0.3545029912,-0.252937949
 9,-1.0340198399\C,-0.6484584136,-1.1776764697,-1.071968215\H,-0.454517
 453,-2.1572725092,-0.6679803024\C,-1.852148536,-0.8681061598,-1.603415
 1225\H,-2.6514774812,-1.5902224657,-1.5735812692\C,-2.0794411951,0.399
 0526723,-2.1351952557\H,-3.0191933048,0.6268400927,-2.6080989891\H,-2.
 761529927,1.2783163105,-0.668049689\C,-0.9931080398,1.2927685772,-2.22
 0584523\C,0.181729932,0.9583108506,-1.6178432932\H,1.0034589,1.6589753
 838,-1.6107983289\C,-1.1599352805,2.653081396,-2.8559427008\O,-0.49490
 68109,3.6014772865,-2.5363472405\N,-2.2394745282,2.7316782612,-3.77340
 43662\H,-2.1534237393,3.5668024177,-4.3593374938\H,-2.324829617,1.8953
 420923,-4.3558829958\C,0.6560643367,2.1410552913,3.8159748094\C,-1.093
 294496,2.0187409945,1.6856808513\C,-1.8252887655,2.6363479832,0.703115
 3489\C,-3.9088796669,3.0896073203,-0.6080718595\C,-3.0361812469,2.0760
 231239,0.0974910609\O,-1.1712089734,0.8231552418,2.0926814754\S,0.0453
 94816,3.1349006445,2.4505276987\H,-0.2012588198,1.743820665,4.35933749
 38\H,1.2316855484,1.3097295132,3.4138557152\H,-4.2575080321,2.70067015
 05,-1.5600635571\H,-3.3488193641,3.9970648052,-0.8033304519\H,-4.77294
 47663,3.3319229001,0.0018750542\H,-3.6091371377,1.5080847964,0.8453614
 268\H,-1.5180812742,3.6248784874,0.4031499615\H,2.5888081376,-4.160883
 2271,-0.3169130111\H,1.2868916404,2.7219115704,4.4888513923\\Version=E
 S64L-G16RevA.03\HF=-1507.8497961\RMSD=4.020e-09\RMSF=6.503e-03\Dipole=
 0.727591,-2.8276937,-2.9030204\Quadrupole=10.5462887,-10.8922782,0.345
 9895,-5.4405498,11.9477002,-8.0474146\PG=C01 [X(C16H24N2O5S1)]\\@


 HEAVEN'S NET CASTS WIDE.
 THOUGH ITS MESHES ARE COARSE, NOTHING SLIPS THROUGH.

                                          -- LAO-TSU
 Job cpu time:       0 days  7 hours 25 minutes  4.4 seconds.
 Elapsed time:       0 days  0 hours 27 minutes 49.7 seconds.
 File lengths (MBytes):  RWF=    435 Int=      0 D2E=      0 Chk=     48 Scr=      1
 Normal termination of Gaussian 16 at Sun Apr  9 11:16:05 2023.
