 Entering Gaussian System, Link 0=g16
 Initial command:
 /opt/gaussian/g16/l1.exe "/opt/gaussian/scratch16/Gau-3407744.inp" -scrdir="/opt/gaussian/scratch16/"
 Entering Link 1 = /opt/gaussian/g16/l1.exe PID=   3407746.
  
 Copyright (c) 1988,1990,1992,1993,1995,1998,2003,2009,2016,
            Gaussian, Inc.  All Rights Reserved.
  
 This is part of the Gaussian(R) 16 program.  It is based on
 the Gaussian(R) 09 system (copyright 2009, Gaussian, Inc.),
 the Gaussian(R) 03 system (copyright 2003, Gaussian, Inc.),
 the Gaussian(R) 98 system (copyright 1998, Gaussian, Inc.),
 the Gaussian(R) 94 system (copyright 1995, Gaussian, Inc.),
 the Gaussian 92(TM) system (copyright 1992, Gaussian, Inc.),
 the Gaussian 90(TM) system (copyright 1990, Gaussian, Inc.),
 the Gaussian 88(TM) system (copyright 1988, Gaussian, Inc.),
 the Gaussian 86(TM) system (copyright 1986, Carnegie Mellon
 University), and the Gaussian 82(TM) system (copyright 1983,
 Carnegie Mellon University). Gaussian is a federally registered
 trademark of Gaussian, Inc.
  
 This software contains proprietary and confidential information,
 including trade secrets, belonging to Gaussian, Inc.
  
 This software is provided under written license and may be
 used, copied, transmitted, or stored only in accord with that
 written license.
  
 The following legend is applicable only to US Government
 contracts under FAR:
  
                    RESTRICTED RIGHTS LEGEND
  
 Use, reproduction and disclosure by the US Government is
 subject to restrictions as set forth in subparagraphs (a)
 and (c) of the Commercial Computer Software - Restricted
 Rights clause in FAR 52.227-19.
  
 Gaussian, Inc.
 340 Quinnipiac St., Bldg. 40, Wallingford CT 06492
  
  
 ---------------------------------------------------------------
 Warning -- This program may not be used in any manner that
 competes with the business of Gaussian, Inc. or will provide
 assistance to any competitor of Gaussian, Inc.  The licensee
 of this program is prohibited from giving any competitor of
 Gaussian, Inc. access to this program.  By using this program,
 the user acknowledges that Gaussian, Inc. is engaged in the
 business of creating and licensing software in the field of
 computational chemistry and represents and warrants to the
 licensee that it is not a competitor of Gaussian, Inc. and that
 it will not use this program in any manner prohibited above.
 ---------------------------------------------------------------
  

 Cite this work as:
 Gaussian 16, Revision A.03,
 M. J. Frisch, G. W. Trucks, H. B. Schlegel, G. E. Scuseria, 
 M. A. Robb, J. R. Cheeseman, G. Scalmani, V. Barone, 
 G. A. Petersson, H. Nakatsuji, X. Li, M. Caricato, A. V. Marenich, 
 J. Bloino, B. G. Janesko, R. Gomperts, B. Mennucci, H. P. Hratchian, 
 J. V. Ortiz, A. F. Izmaylov, J. L. Sonnenberg, D. Williams-Young, 
 F. Ding, F. Lipparini, F. Egidi, J. Goings, B. Peng, A. Petrone, 
 T. Henderson, D. Ranasinghe, V. G. Zakrzewski, J. Gao, N. Rega, 
 G. Zheng, W. Liang, M. Hada, M. Ehara, K. Toyota, R. Fukuda, 
 J. Hasegawa, M. Ishida, T. Nakajima, Y. Honda, O. Kitao, H. Nakai, 
 T. Vreven, K. Throssell, J. A. Montgomery, Jr., J. E. Peralta, 
 F. Ogliaro, M. J. Bearpark, J. J. Heyd, E. N. Brothers, K. N. Kudin, 
 V. N. Staroverov, T. A. Keith, R. Kobayashi, J. Normand, 
 K. Raghavachari, A. P. Rendell, J. C. Burant, S. S. Iyengar, 
 J. Tomasi, M. Cossi, J. M. Millam, M. Klene, C. Adamo, R. Cammi, 
 J. W. Ochterski, R. L. Martin, K. Morokuma, O. Farkas, 
 J. B. Foresman, and D. J. Fox, Gaussian, Inc., Wallingford CT, 2016.
 
 ******************************************
 Gaussian 16:  ES64L-G16RevA.03 25-Dec-2016
                 9-Apr-2023 
 ******************************************
 %chk=28.chk
 %NProcShared=16
 Will use up to   16 processors via shared memory.
 %mem=20GB
 ----------------------------------------------------------------------
 #P M062X/Def2TZVP scf=(direct,conver=8) EmpiricalDispersion=GD3 NoSymm
  Force pop=(NBORead) Charge Prop=(Field,Read)
 ----------------------------------------------------------------------
 1/10=7,18=10,28=-2,30=1,38=1,125=101/1,3;
 2/12=2,15=1,17=6,18=5,29=2,40=1/2;
 3/5=44,7=101,11=2,25=1,30=1,71=1,74=-55,124=31/1,2,3;
 4//1;
 5/5=2,6=8,38=5/2;
 6/7=2,8=2,9=2,10=2,14=2,15=1,28=1,40=2/1,2,7;
 7/7=1,16=-2,29=1,30=1/1,2,3,16;
 1/10=7,18=10,28=-2,30=1/3;
 99/12=1/99;
 Leave Link    1 at Sun Apr  9 10:46:22 2023, MaxMem=  2684354560 cpu:               1.0 elap:               0.1
 (Enter /opt/gaussian/g16/l101.exe)
 ----------------------------------------------------------------------
 Gaussian run using SANDER external interface, route from template gau_
 job.tpl
 ----------------------------------------------------------------------
 Symbolic Z-matrix:
 Charge =  0 Multiplicity = 1
 C                     3.47175  -3.64657  -0.70018 
 H                     3.55965  -3.80938  -1.7709 
 H                     4.37147  -4.0005   -0.20517 
 C                     1.61897  -1.24323   0.98288 
 H                     0.93733  -2.11803   0.95396 
 O                     1.35238  -0.40438   2.05336 
 H                     0.42726  -0.08237   2.009 
 C                     3.07796  -1.76366   1.03937 
 H                     3.1556   -2.64531   1.69753 
 O                     3.8624   -0.69572   1.49292 
 H                     4.77891  -0.98871   1.54382 
 C                     1.64954  -0.59258  -0.42887 
 H                     2.24064   0.32842  -0.33672 
 C                     3.36598  -2.14832  -0.4487 
 H                     4.31559  -1.68641  -0.75092 
 O                     2.3118   -1.56048  -1.23455 
 N                     0.36428  -0.2624   -1.04263 
 C                    -0.63043  -1.19348  -1.08487 
 H                    -0.44849  -2.1585   -0.63874 
 C                    -1.82188  -0.9009   -1.65836 
 H                    -2.62978  -1.61188  -1.60034 
 C                    -2.03778   0.34395  -2.22706 
 H                    -2.98787   0.58246  -2.67085 
 H                    -2.79802   1.26821  -0.59734 
 C                    -0.97584   1.26288  -2.25981 
 C                     0.1882    0.94428  -1.62126 
 H                     0.99116   1.66661  -1.5776 
 C                    -1.15332   2.6386   -2.86501 
 O                    -0.49426   3.5821   -2.52072 
 N                    -2.23367   2.72877  -3.77563 
 H                    -2.15198   3.57037  -4.35169 
 H                    -2.32178   1.89745  -4.36413 
 C                     0.66648   2.13395   3.82317 
 C                    -1.08177   2.01384   1.68731 
 C                    -1.82773   2.64379   0.73098 
 C                    -3.91229   3.10036  -0.58114 
 C                    -3.05599   2.07633   0.13426 
 O                    -1.14999   0.81228   2.08282 
 S                     0.0667    3.12826   2.45531 
 H                    -0.19365   1.73974   4.36413 
 H                     1.24092   1.30065   3.42398 
 H                    -4.26197   2.70353  -1.53044 
 H                    -3.34187   4.0005   -0.79338 
 H                    -4.77891   3.36878   0.01922 
 H                    -3.63981   1.57232   0.91841 
 H                    -1.52634   3.63881   0.44544 
 H                     2.59417  -4.16456  -0.31336 
 H                     1.2963    2.71567   4.49624 
 
 ITRead=  0  0  0  0  0  0  0  0  0  0  0  0  0  0  0  0  0  0  0  0
 ITRead=  0  0  0  0  0  0  0  0  0  0  0  0  0  0  0  0  0  0  0  0
 ITRead=  0  0  0  0  0  0  0  0
 MicOpt= -1 -1 -1 -1 -1 -1 -1 -1 -1 -1 -1 -1 -1 -1 -1 -1 -1 -1 -1 -1
 MicOpt= -1 -1 -1 -1 -1 -1 -1 -1 -1 -1 -1 -1 -1 -1 -1 -1 -1 -1 -1 -1
 MicOpt= -1 -1 -1 -1 -1 -1 -1 -1
 NAtoms=     48 NQM=       48 NQMF=       0 NMMI=      0 NMMIF=      0
                NMic=       0 NMicF=      0.
                    Isotopes and Nuclear Properties:
 (Nuclear quadrupole moments (NQMom) in fm**2, nuclear magnetic moments (NMagM)
  in nuclear magnetons)

  Atom         1           2           3           4           5           6           7           8           9          10
 IAtWgt=          12           1           1          12           1          16           1          12           1          16
 AtmWgt=  12.0000000   1.0078250   1.0078250  12.0000000   1.0078250  15.9949146   1.0078250  12.0000000   1.0078250  15.9949146
 NucSpn=           0           1           1           0           1           0           1           0           1           0
 AtZEff=  -0.0000000  -0.0000000  -0.0000000  -0.0000000  -0.0000000  -0.0000000  -0.0000000  -0.0000000  -0.0000000  -0.0000000
 NQMom=    0.0000000   0.0000000   0.0000000   0.0000000   0.0000000   0.0000000   0.0000000   0.0000000   0.0000000   0.0000000
 NMagM=    0.0000000   2.7928460   2.7928460   0.0000000   2.7928460   0.0000000   2.7928460   0.0000000   2.7928460   0.0000000
 AtZNuc=   6.0000000   1.0000000   1.0000000   6.0000000   1.0000000   8.0000000   1.0000000   6.0000000   1.0000000   8.0000000

  Atom        11          12          13          14          15          16          17          18          19          20
 IAtWgt=           1          12           1          12           1          16          14          12           1          12
 AtmWgt=   1.0078250  12.0000000   1.0078250  12.0000000   1.0078250  15.9949146  14.0030740  12.0000000   1.0078250  12.0000000
 NucSpn=           1           0           1           0           1           0           2           0           1           0
 AtZEff=  -0.0000000  -0.0000000  -0.0000000  -0.0000000  -0.0000000  -0.0000000  -0.0000000  -0.0000000  -0.0000000  -0.0000000
 NQMom=    0.0000000   0.0000000   0.0000000   0.0000000   0.0000000   0.0000000   2.0440000   0.0000000   0.0000000   0.0000000
 NMagM=    2.7928460   0.0000000   2.7928460   0.0000000   2.7928460   0.0000000   0.4037610   0.0000000   2.7928460   0.0000000
 AtZNuc=   1.0000000   6.0000000   1.0000000   6.0000000   1.0000000   8.0000000   7.0000000   6.0000000   1.0000000   6.0000000

  Atom        21          22          23          24          25          26          27          28          29          30
 IAtWgt=           1          12           1           1          12          12           1          12          16          14
 AtmWgt=   1.0078250  12.0000000   1.0078250   1.0078250  12.0000000  12.0000000   1.0078250  12.0000000  15.9949146  14.0030740
 NucSpn=           1           0           1           1           0           0           1           0           0           2
 AtZEff=  -0.0000000  -0.0000000  -0.0000000  -0.0000000  -0.0000000  -0.0000000  -0.0000000  -0.0000000  -0.0000000  -0.0000000
 NQMom=    0.0000000   0.0000000   0.0000000   0.0000000   0.0000000   0.0000000   0.0000000   0.0000000   0.0000000   2.0440000
 NMagM=    2.7928460   0.0000000   2.7928460   2.7928460   0.0000000   0.0000000   2.7928460   0.0000000   0.0000000   0.4037610
 AtZNuc=   1.0000000   6.0000000   1.0000000   1.0000000   6.0000000   6.0000000   1.0000000   6.0000000   8.0000000   7.0000000

  Atom        31          32          33          34          35          36          37          38          39          40
 IAtWgt=           1           1          12          12          12          12          12          16          32           1
 AtmWgt=   1.0078250   1.0078250  12.0000000  12.0000000  12.0000000  12.0000000  12.0000000  15.9949146  31.9720718   1.0078250
 NucSpn=           1           1           0           0           0           0           0           0           0           1
 AtZEff=  -0.0000000  -0.0000000  -0.0000000  -0.0000000  -0.0000000  -0.0000000  -0.0000000  -0.0000000  -0.0000000  -0.0000000
 NQMom=    0.0000000   0.0000000   0.0000000   0.0000000   0.0000000   0.0000000   0.0000000   0.0000000   0.0000000   0.0000000
 NMagM=    2.7928460   2.7928460   0.0000000   0.0000000   0.0000000   0.0000000   0.0000000   0.0000000   0.0000000   2.7928460
 AtZNuc=   1.0000000   1.0000000   6.0000000   6.0000000   6.0000000   6.0000000   6.0000000   8.0000000  16.0000000   1.0000000

  Atom        41          42          43          44          45          46          47          48
 IAtWgt=           1           1           1           1           1           1           1           1
 AtmWgt=   1.0078250   1.0078250   1.0078250   1.0078250   1.0078250   1.0078250   1.0078250   1.0078250
 NucSpn=           1           1           1           1           1           1           1           1
 AtZEff=  -0.0000000  -0.0000000  -0.0000000  -0.0000000  -0.0000000  -0.0000000  -0.0000000  -0.0000000
 NQMom=    0.0000000   0.0000000   0.0000000   0.0000000   0.0000000   0.0000000   0.0000000   0.0000000
 NMagM=    2.7928460   2.7928460   2.7928460   2.7928460   2.7928460   2.7928460   2.7928460   2.7928460
 AtZNuc=   1.0000000   1.0000000   1.0000000   1.0000000   1.0000000   1.0000000   1.0000000   1.0000000
 Background charge distribution read from input stream:
 Leave Link  101 at Sun Apr  9 10:46:23 2023, MaxMem=  2684354560 cpu:               3.8 elap:               0.2
 (Enter /opt/gaussian/g16/l103.exe)

 GradGradGradGradGradGradGradGradGradGradGradGradGradGradGradGradGradGrad
 Berny optimization.
 Initialization pass.
 Trust Radius=3.00D-01 FncErr=1.00D-07 GrdErr=1.00D-07 EigMax=2.50D+02 EigMin=1.00D-04
 Number of steps in this run=      2 maximum allowed number of steps=      2.
 GradGradGradGradGradGradGradGradGradGradGradGradGradGradGradGradGradGrad

 Leave Link  103 at Sun Apr  9 10:46:23 2023, MaxMem=  2684354560 cpu:               0.4 elap:               0.0
 (Enter /opt/gaussian/g16/l202.exe)
 ---------------------------------------------------------------------------------------------------
                            Z-MATRIX (ANGSTROMS AND DEGREES)
   CD    Cent   Atom    N1       Length/X        N2       Alpha/Y        N3        Beta/Z          J
 ---------------------------------------------------------------------------------------------------
      1      1  C        0   3.471751         -3.646568         -0.700183
      2      2  H        0   3.559645         -3.809381         -1.770900
      3      3  H        0   4.371467         -4.000503         -0.205170
      4      4  C        0   1.618972         -1.243232          0.982883
      5      5  H        0   0.937328         -2.118035          0.953957
      6      6  O        0   1.352382         -0.404382          2.053358
      7      7  H        0   0.427256         -0.082375          2.009003
      8      8  C        0   3.077961         -1.763658          1.039365
      9      9  H        0   3.155598         -2.645310          1.697530
     10     10  O        0   3.862401         -0.695724          1.492917
     11     11  H        0   4.778911         -0.988707          1.543824
     12     12  C        0   1.649538         -0.592585         -0.428871
     13     13  H        0   2.240639          0.328423         -0.336718
     14     14  C        0   3.365979         -2.148319         -0.448702
     15     15  H        0   4.315592         -1.686406         -0.750919
     16     16  O        0   2.311795         -1.560478         -1.234551
     17     17  N        0   0.364278         -0.262396         -1.042627
     18     18  C        0  -0.630433         -1.193479         -1.084866
     19     19  H        0  -0.448488         -2.158498         -0.638744
     20     20  C        0  -1.821884         -0.900904         -1.658363
     21     21  H        0  -2.629784         -1.611877         -1.600344
     22     22  C        0  -2.037780          0.343955         -2.227060
     23     23  H        0  -2.987869          0.582456         -2.670852
     24     24  H        0  -2.798021          1.268207         -0.597339
     25     25  C        0  -0.975839          1.262882         -2.259812
     26     26  C        0   0.188204          0.944276         -1.621255
     27     27  H        0   0.991158          1.666606         -1.577597
     28     28  C        0  -1.153318          2.638599         -2.865009
     29     29  O        0  -0.494255          3.582096         -2.520719
     30     30  N        0  -2.233667          2.728766         -3.775626
     31     31  H        0  -2.151979          3.570373         -4.351688
     32     32  H        0  -2.321779          1.897450         -4.364131
     33     33  C        0   0.666477          2.133952          3.823172
     34     34  C        0  -1.081769          2.013842          1.687308
     35     35  C        0  -1.827735          2.643791          0.730982
     36     36  C        0  -3.912292          3.100364         -0.581144
     37     37  C        0  -3.055992          2.076329          0.134264
     38     38  O        0  -1.149994          0.812280          2.082815
     39     39  S        0   0.066695          3.128256          2.455309
     40     40  H        0  -0.193652          1.739739          4.364131
     41     41  H        0   1.240918          1.300651          3.423978
     42     42  H        0  -4.261974          2.703535         -1.530443
     43     43  H        0  -3.341865          4.000503         -0.793376
     44     44  H        0  -4.778911          3.368785          0.019224
     45     45  H        0  -3.639814          1.572322          0.918412
     46     46  H        0  -1.526340          3.638815          0.445438
     47     47  H        0   2.594167         -4.164562         -0.313362
     48     48  H        0   1.296304          2.715674          4.496237
 ---------------------------------------------------------------------------------------------------
                         Z-Matrix orientation:                         
 ---------------------------------------------------------------------
 Center     Atomic      Atomic             Coordinates (Angstroms)
 Number     Number       Type             X           Y           Z
 ---------------------------------------------------------------------
      1          6           0        3.471751   -3.646568   -0.700183
      2          1           0        3.559645   -3.809381   -1.770900
      3          1           0        4.371467   -4.000503   -0.205170
      4          6           0        1.618972   -1.243232    0.982883
      5          1           0        0.937328   -2.118035    0.953957
      6          8           0        1.352382   -0.404382    2.053358
      7          1           0        0.427256   -0.082375    2.009003
      8          6           0        3.077961   -1.763658    1.039365
      9          1           0        3.155598   -2.645310    1.697530
     10          8           0        3.862401   -0.695724    1.492917
     11          1           0        4.778911   -0.988707    1.543824
     12          6           0        1.649538   -0.592585   -0.428871
     13          1           0        2.240639    0.328423   -0.336718
     14          6           0        3.365979   -2.148319   -0.448702
     15          1           0        4.315592   -1.686406   -0.750919
     16          8           0        2.311795   -1.560478   -1.234551
     17          7           0        0.364278   -0.262396   -1.042627
     18          6           0       -0.630433   -1.193479   -1.084866
     19          1           0       -0.448488   -2.158498   -0.638744
     20          6           0       -1.821884   -0.900904   -1.658363
     21          1           0       -2.629784   -1.611877   -1.600344
     22          6           0       -2.037780    0.343955   -2.227060
     23          1           0       -2.987869    0.582456   -2.670852
     24          1           0       -2.798021    1.268207   -0.597339
     25          6           0       -0.975839    1.262882   -2.259812
     26          6           0        0.188204    0.944276   -1.621255
     27          1           0        0.991158    1.666606   -1.577597
     28          6           0       -1.153318    2.638599   -2.865009
     29          8           0       -0.494255    3.582096   -2.520719
     30          7           0       -2.233667    2.728766   -3.775626
     31          1           0       -2.151979    3.570373   -4.351688
     32          1           0       -2.321779    1.897450   -4.364131
     33          6           0        0.666477    2.133952    3.823172
     34          6           0       -1.081769    2.013842    1.687308
     35          6           0       -1.827735    2.643791    0.730982
     36          6           0       -3.912292    3.100364   -0.581144
     37          6           0       -3.055992    2.076329    0.134264
     38          8           0       -1.149994    0.812280    2.082815
     39         16           0        0.066695    3.128256    2.455309
     40          1           0       -0.193652    1.739739    4.364131
     41          1           0        1.240918    1.300651    3.423978
     42          1           0       -4.261974    2.703535   -1.530443
     43          1           0       -3.341865    4.000503   -0.793376
     44          1           0       -4.778911    3.368785    0.019224
     45          1           0       -3.639814    1.572322    0.918412
     46          1           0       -1.526340    3.638815    0.445438
     47          1           0        2.594167   -4.164562   -0.313362
     48          1           0        1.296304    2.715674    4.496237
 ---------------------------------------------------------------------
                    Distance matrix (angstroms):
                    1          2          3          4          5
     1  C    0.000000
     2  H    1.086586   0.000000
     3  H    1.086185   1.774005   0.000000
     4  C    3.470090   4.234933   4.073112   0.000000
     5  H    3.390559   4.142710   4.084185   1.109394   0.000000
     6  O    4.752418   5.575928   5.210365   1.385877   2.077873
     7  H    5.414066   6.163611   5.984237   1.954661   2.348874
     8  C    2.593539   3.509216   2.868013   1.550059   2.171447
     9  H    2.617536   3.680805   2.633468   2.199492   2.398258
    10  O    3.697266   4.520954   3.750228   2.364926   3.296892
    11  H    3.715973   4.519979   3.506551   3.219418   4.047355
    12  C    3.566634   3.974585   4.367247   1.554775   2.178636
    13  H    4.177116   4.573628   4.826731   2.144275   3.057714
    14  C    1.522885   2.131863   2.121532   2.433240   2.804767
    15  H    2.134684   2.473629   2.378236   3.236392   3.808618
    16  O    2.445980   2.627235   3.354936   2.344709   2.643784
    17  N    4.607198   4.829270   5.543675   2.576622   2.785342
    18  C    4.795158   4.987018   5.802780   3.055795   2.733035
    19  H    4.193614   4.480214   5.178121   2.782405   2.111592
    20  C    6.039814   6.118232   7.076502   4.351190   3.989847
    21  H    6.494535   6.570171   7.527919   4.986069   4.416440
    22  C    6.972127   6.984944   8.002549   5.118078   5.003152
    23  H    7.968367   7.935244   9.013486   6.156776   5.986574
    24  H    7.967160   8.220649   8.905878   5.321114   5.275035
    25  C    6.805600   6.821840   7.779361   4.850641   5.041738
    26  C    5.718908   5.829774   6.629919   3.689691   4.070707
    27  H    5.928998   6.051523   6.739894   3.926495   4.553589
    28  C    8.098213   8.061361   9.037459   6.128660   6.448323
    29  O    8.443763   8.463466   9.302302   6.326511   6.827466
    30  N    9.091481   8.962631  10.082609   7.298150   7.477676
    31  H    9.851095   9.682143  10.819756   8.114709   8.369688
    32  H    8.816214   8.595575   9.842883   7.347377   7.418083
    33  C    7.857780   8.659519   8.221072   4.514406   5.136647
    34  C    7.646888   8.210472   8.336162   4.289376   4.656926
    35  C    8.348736   8.770787   9.135268   5.201171   5.510923
    36  C   10.002967  10.246460  10.917158   7.204712   7.287457
    37  C    8.721197   9.057477   9.602617   5.796113   5.849033
    38  O    6.999066   7.641438   7.673610   3.619689   3.770674
    39  S    8.212781   8.842644   8.742335   4.866982   5.525905
    40  H    8.251954   9.083973   8.641134   4.859687   5.271699
    41  H    6.816179   7.646940   7.146558   3.545873   4.228544
    42  H   10.041098  10.181042  11.010758   7.515271   7.513490
    43  H   10.242643  10.468079  11.129132   7.433825   7.668192
    44  H   10.853854  11.147292  11.751007   7.945580   7.978365
    45  H    8.968334   9.382289   9.823413   5.965428   5.879646
    46  H    8.908993   9.287358   9.672983   5.832342   6.282481
    47  H    1.090000   1.784017   1.788132   3.341471   2.922240
    48  H    8.497851   9.326096   8.755963   5.302896   6.003445
                    6          7          8          9         10
     6  O    0.000000
     7  H    0.980568   0.000000
     8  C    2.419387   3.285292   0.000000
     9  H    2.898268   3.756262   1.102959   0.000000
    10  O    2.588275   3.527430   1.400550   2.083825   0.000000
    11  H    3.513141   4.469309   1.936042   2.324458   0.963546
    12  C    2.507027   2.774440   2.359560   3.317150   2.932690
    13  H    2.653010   2.993245   2.640363   3.717311   2.650764
    14  C    3.654613   4.352532   1.563734   2.213047   2.475148
    15  H    4.276466   5.030829   2.177801   2.874019   2.494321
    16  O    3.614882   4.031987   2.408108   3.238204   3.254422
    17  N    3.252942   3.057584   3.735311   4.580197   4.342075
    18  C    3.795086   3.453301   4.311571   4.917680   5.203680
    19  H    3.683405   3.476749   3.925276   4.322569   5.026674
    20  C    4.909111   4.379293   5.659555   6.251424   6.502597
    21  H    5.537620   4.971143   6.290426   6.739036   7.249557
    22  C    5.511368   4.919593   6.425135   7.163050   7.052042
    23  H    6.490746   5.831477   7.487607   8.200209   8.117692
    24  H    5.200923   4.361137   6.811621   7.485161   7.251719
    25  C    5.177240   4.690541   6.039686   6.928441   6.428660
    26  C    4.083744   3.780203   4.771006   5.718819   5.087965
    27  H    4.195629   4.029965   4.792697   5.831285   4.822105
    28  C    6.303063   5.801544   7.247601   8.203854   7.434155
    29  O    6.342259   5.898806   7.349286   8.360361   7.306809
    30  N    7.526846   6.960242   8.460461   9.374450   8.754811
    31  H    8.312872   7.775180   9.212362  10.168488   9.409132
    32  H    7.744808   7.217599   8.471049   9.347837   8.903575
    33  C    3.169519   2.874115   5.362481   5.792705   4.863238
    34  C    3.450636   2.602839   5.656208   6.297863   5.641307
    35  C    4.599259   3.761689   6.602011   7.330922   6.641577
    36  C    6.851324   5.972468   8.668817   9.389366   8.897070
    37  C    5.410232   4.506403   7.293153   7.957483   7.575908
    38  O    2.782629   1.814821   5.059629   5.535476   5.267462
    39  S    3.780753   3.261494   5.916371   6.591633   5.473244
    40  H    3.511004   3.041751   5.833636   6.128368   5.534158
    41  H    2.190472   2.139384   4.295474   4.713516   3.819252
    42  H    7.350087   6.502143   8.968521   9.697955   9.311345
    43  H    7.038669   6.223303   8.820355   9.622291   8.898490
    44  H    7.481126   6.555448   9.439973  10.096657   9.662519
    45  H    5.487941   4.524210   7.501460   8.035738   7.858583
    46  H    5.217268   4.484253   7.123135   7.935900   6.994567
    47  H    4.613279   5.172343   2.797904   2.582057   4.111436
    48  H    3.963023   3.843261   5.932005   6.326918   5.219427
                   11         12         13         14         15
    11  H    0.000000
    12  C    3.720405   0.000000
    13  H    3.422586   1.098247   0.000000
    14  C    2.703930   2.316651   2.722716   0.000000
    15  H    2.442805   2.899656   2.921734   1.098391   0.000000
    16  O    3.759381   1.422856   2.092633   1.440285   2.065177
    17  N    5.167808   1.462058   2.090001   3.594393   4.210199
    18  C    6.017719   2.447381   3.334511   4.157853   4.981733
    19  H    5.784264   2.626375   3.675241   3.819212   4.788727
    20  C    7.337044   3.695604   4.445457   5.471129   6.253725
    21  H    8.072354   4.552352   5.392823   6.128885   6.997523
    22  C    7.903343   4.207957   4.677446   6.210845   6.831302
    23  H    8.975239   5.283251   5.731493   7.264054   7.885076
    24  H    8.190735   4.824077   5.132174   7.049089   7.704338
    25  C    7.256338   3.699690   3.862283   5.811007   6.242940
    26  C    5.901588   2.432944   2.498360   4.586642   4.971248
    27  H    5.580415   2.618583   2.211723   4.633340   4.793532
    28  C    8.233256   4.922532   4.821630   7.012644   7.285878
    29  O    8.075830   5.138057   4.778692   7.213343   7.350097
    30  N    9.554706   6.108307   6.132467   8.136979   8.457860
    31  H   10.177402   6.868060   6.776822   8.853508   9.079028
    32  H    9.677481   6.120286   6.284708   8.003088   8.363852
    33  C    5.644337   5.145900   4.800271   6.623750   6.988096
    34  C    6.586612   4.328015   4.239777   6.455121   6.983430
    35  C    7.583108   4.889868   4.801310   7.164541   7.660750
    36  C    9.837327   6.677950   6.752922   8.974377   9.520507
    37  C    8.530358   5.438955   5.597437   7.709035   8.323579
    38  O    6.219805   4.014922   4.193405   5.963870   6.644254
    39  S    6.323383   4.966744   4.512262   6.867373   7.177325
    40  H    6.334424   5.640031   5.478646   7.138020   7.631218
    41  H    4.614492   4.312281   4.010923   5.604368   5.983803
    42  H   10.238231   6.857393   7.024964   9.104742   9.667155
    43  H    9.813344   6.792895   6.697541   9.106151   9.538311
    44  H   10.614335   7.564271   7.657975   9.848687  10.433506
    45  H    8.821845   5.871903   6.140225   8.049430   8.757538
    46  H    7.897886   5.362403   5.075490   7.630544   7.994837
    47  H    4.278820   3.696578   4.506932   2.163156   3.048936
    48  H    5.879433   5.943572   5.472494   7.238398   7.485122
                   16         17         18         19         20
    16  O    0.000000
    17  N    2.348334   0.000000
    18  C    2.968805   1.363140   0.000000
    19  H    2.886482   2.102121   1.078606   0.000000
    20  C    4.207370   2.359265   1.354273   2.123060   0.000000
    21  H    4.955366   3.331150   2.106699   2.445715   1.077752
    22  C    4.850849   2.745984   2.376748   3.363163   1.385533
    23  H    5.894198   3.821228   3.350642   4.253322   2.141264
    24  H    5.875179   3.541351   3.316024   4.155037   2.604546
    25  C    4.453208   2.367261   2.744724   3.822538   2.399897
    26  C    3.306504   1.349767   2.351144   3.316310   2.728832
    27  H    3.503689   2.097671   3.324520   4.193501   3.809442
    28  C    5.683102   3.746992   4.257598   5.335277   3.798823
    29  O    5.997850   4.207369   4.988620   6.041385   4.754319
    30  N    6.746547   4.813071   5.019417   6.075544   4.222188
    31  H    7.481140   5.654340   5.973401   7.036178   5.230228
    32  H    6.574309   4.786672   4.813322   5.817081   3.924520
    33  C    6.475835   5.432293   6.069811   6.291023   6.741626
    34  C    5.729686   3.837298   4.263280   4.818712   4.498559
    35  C    6.218915   4.049263   4.410836   5.180777   4.274795
    36  C    7.803182   5.459869   5.427837   6.297371   4.641158
    37  C    6.626700   4.307314   4.249853   5.032929   3.687879
    38  O    5.349662   3.635428   3.785131   4.089563   4.169275
    39  S    6.374933   4.880639   5.629939   6.147223   6.059964
    40  H    6.965194   5.792483   6.203717   6.347436   6.774553
    41  H    5.570883   4.812710   5.481999   5.596921   6.329124
    42  H    7.841161   5.516967   5.345404   6.243170   4.354582
    43  H    7.942482   5.654196   5.866368   6.806529   5.204069
    44  H    8.726265   6.384779   6.264434   7.052400   5.457889
    45  H    7.061964   4.821268   4.551829   5.150565   4.007679
    46  H    6.677297   4.583473   5.147382   5.995503   5.012223
    47  H    2.776612   4.553145   4.452034   3.658950   5.653495
    48  H    7.222093   6.357404   7.081137   7.291768   7.789855
                   21         22         23         24         25
    21  H    0.000000
    22  C    2.137409   0.000000
    23  H    2.467652   1.075409   0.000000
    24  H    3.054375   2.021930   2.192202   0.000000
    25  C    3.381519   1.404713   2.163377   2.466615   0.000000
    26  C    3.804657   2.383776   3.364522   3.173465   1.365379
    27  H    4.884690   3.368334   4.266527   3.934147   2.120728
    28  C    4.673957   2.540599   2.762426   3.118549   1.513394
    29  O    5.690775   3.599203   3.903651   3.789565   2.383012
    30  N    4.871338   2.850220   2.529030   3.543054   2.455329
    31  H    5.886757   3.864824   3.528678   4.451120   3.329229
    32  H    4.477584   2.657268   2.245012   3.848567   2.577283
    33  C    7.369606   6.864575   7.611421   5.682709   6.360711
    34  C    5.133308   4.361738   4.967458   2.953152   4.019318
    35  C    4.918239   3.752783   4.143367   2.144324   3.402570
    36  C    4.988868   3.717610   3.400190   2.144448   3.849288
    37  C    4.097972   3.100601   3.178831   1.120202   3.274191
    38  O    4.651020   4.425214   5.101760   3.179166   4.369414
    39  S    6.796189   5.840011   6.487602   4.580944   5.176761
    40  H    7.262440   6.985185   7.657541   5.623279   6.686989
    41  H    6.979182   6.602981   7.452879   5.699569   6.100894
    42  H    4.614294   3.316615   2.724491   2.252555   3.661440
    43  H    5.714636   4.138409   3.915772   2.792782   3.904239
    44  H    5.661161   4.659312   4.267079   2.952372   4.908379
    45  H    4.183709   3.737565   3.779905   1.760285   4.158560
    46  H    5.742175   4.273163   4.603114   2.885193   3.642319
    47  H    5.955014   6.741209   7.697472   7.659721   6.781649
    48  H    8.444535   7.870444   8.618116   6.693518   7.274437
                   26         27         28         29         30
    26  C    0.000000
    27  H    1.080927   0.000000
    28  C    2.493459   2.683464   0.000000
    29  O    2.869299   2.600967   1.201285   0.000000
    30  N    3.700159   4.044628   1.415806   2.308358   0.000000
    31  H    4.452876   4.604262   2.018847   2.469946   1.023144
    32  H    3.838218   4.335160   2.040090   3.094518   1.022344
    33  C    5.593376   5.430665   6.949682   6.609793   8.155143
    34  C    3.701809   3.882937   4.595545   4.529027   5.628644
    35  C    3.533466   3.772344   3.658691   3.637601   4.525651
    36  C    4.748117   5.205036   3.611260   3.959418   3.627752
    37  C    3.858523   4.413362   3.596102   3.984817   4.048349
    38  O    3.940601   4.325855   5.274127   5.412430   6.258482
    39  S    4.626328   4.388095   5.480326   5.028070   6.654007
    40  H    6.050076   6.059146   7.347746   7.133428   8.449584
    41  H    5.166197   5.021161   6.861037   6.599639   8.120749
    42  H    4.786160   5.354703   3.383641   3.993523   3.025808
    43  H    4.742077   4.983690   3.306990   3.356733   3.426256
    44  H    5.765557   6.224223   4.690085   4.985488   4.613976
    45  H    4.636602   5.261640   4.651224   5.075564   5.034739
    46  H    3.804132   3.784187   3.478310   3.141099   4.375601
    47  H    5.796505   6.178224   8.175423   8.626788   9.100177
    48  H    6.464476   6.171314   7.758514   7.293453   8.993586
                   31         32         33         34         35
    31  H    0.000000
    32  H    1.681564   0.000000
    33  C    8.765576   8.718803   0.000000
    34  C    6.327528   6.178275   2.762734   0.000000
    35  C    5.176604   5.173131   4.005329   1.366697   0.000000
    36  C    4.187674   4.276415   6.426280   3.786590   2.505098
    37  C    4.813852   4.561427   5.241005   2.512650   1.478751
    38  O    7.072050   6.641821   2.841693   1.266820   2.375125
    39  S    7.173088   7.329696   1.794276   1.775025   2.607081
    40  H    9.118759   8.985340   1.089891   2.833595   4.085010
    41  H    8.782049   8.585081   1.087993   2.986560   4.298009
    42  H    3.628073   3.527594   7.298989   4.576386   3.323121
    43  H    3.776562   4.267750   6.392443   3.899827   2.541049
    44  H    5.103556   5.236041   6.756262   4.276358   3.121163
    45  H    5.829221   5.454189   5.224672   2.707349   2.113482
    46  H    4.838236   5.176585   4.299086   2.092945   1.078168
    47  H    9.932935   8.793363   7.778058   7.462430   8.185202
    48  H    9.534514   9.605526   1.090000   3.746716   4.893049
                   36         37         38         39         40
    36  C    0.000000
    37  C    1.514498   0.000000
    38  O    4.467919   3.004580   0.000000
    39  S    5.005314   4.030506   2.642505   0.000000
    40  H    6.335245   5.118404   2.641811   2.374735   0.000000
    41  H    6.770195   5.466932   2.784544   2.378500   1.770502
    42  H    1.086701   2.149192   5.130000   5.899490   7.226766
    43  H    1.086591   2.155153   4.820948   4.788847   6.451525
    44  H    1.087897   2.156879   4.895219   5.428836   6.523542
    45  H    2.158199   1.099890   2.851790   4.303626   4.876171
    46  H    2.652653   2.208626   3.288151   2.614959   4.553976
    47  H    9.756273   8.430503   6.673033   8.199930   8.031914
    48  H    7.284041   6.195003   3.928344   2.418171   1.786021
                   41         42         43         44         45
    41  H    0.000000
    42  H    7.536325   0.000000
    43  H    6.788018   1.752710   0.000000
    44  H    7.218578   1.763873   1.767622   0.000000
    45  H    5.493016   2.768323   2.985808   2.309406   0.000000
    46  H    4.690035   3.501792   2.227468   3.291473   2.993471
    47  H    6.757778   9.780527  10.106195  10.546289   8.561054
    48  H    1.776259   8.198505   7.151462   7.574856   6.202689
                   46         47         48
    46  H    0.000000
    47  H    8.857034   0.000000
    48  H    5.022796   8.494371   0.000000
 Symmetry turned off by external request.
 Stoichiometry    C16H24N2O5S
 Framework group  C1[X(C16H24N2O5S)]
 Deg. of freedom   138
 Full point group                 C1      NOp   1
 Rotational constants (GHZ):           0.2824200           0.1684402           0.1251021
 Leave Link  202 at Sun Apr  9 10:46:23 2023, MaxMem=  2684354560 cpu:               0.1 elap:               0.0
 (Enter /opt/gaussian/g16/l301.exe)
 Standard basis: def2TZVP (5D, 7F)
 Ernie: Thresh=  0.10000D-02 Tol=  0.10000D-05 Strict=F.
   894 basis functions,  1434 primitive gaussians,  1014 cartesian basis functions
    95 alpha electrons       95 beta electrons
       nuclear repulsion energy      2428.0133498982 Hartrees.
 IExCor= 4336 DFT=T Ex+Corr=M062X ExCW=0 ScaHFX=  0.540000
 ScaDFX=  1.000000  1.000000  1.000000  1.000000 ScalE2=  1.000000  1.000000
 IRadAn=      5 IRanWt=     -1 IRanGd=            0 ICorTp=0 IEmpDi=131
 NAtoms=   48 NActive=   48 NUniq=   48 SFac= 1.00D+00 NAtFMM=   60 NAOKFM=F Big=F
 Integral buffers will be    131072 words long.
 Raffenetti 2 integral format.
 Two-electron integral symmetry is turned off.
 R6Disp:  Grimme-D3 Dispersion energy=       -0.0042066709 Hartrees.
 Nuclear repulsion after empirical dispersion term =     2428.0091432274 Hartrees.
 Leave Link  301 at Sun Apr  9 10:46:23 2023, MaxMem=  2684354560 cpu:               0.9 elap:               0.1
 (Enter /opt/gaussian/g16/l302.exe)
 NPDir=0 NMtPBC=     1 NCelOv=     1 NCel=       1 NClECP=     1 NCelD=      1
         NCelK=      1 NCelE2=     1 NClLst=     1 CellRange=     0.0.
 One-electron integrals computed using PRISM.
   1 Symmetry operations used in ECPInt.
 ECPInt:  NShTT=   65703 NPrTT=  200010 LenC2=   55989 LenP2D=  118476.
 LDataN:  DoStor=T MaxTD1= 6 Len=  172
 NBasis=   894 RedAO= T EigKep=  2.32D-05  NBF=   894
 NBsUse=   894 1.00D-06 EigRej= -1.00D+00 NBFU=   894
 Precomputing XC quadrature grid using
 IXCGrd= 4 IRadAn=           5 IRanWt=          -1 IRanGd=           0 AccXCQ= 0.00D+00.
 Generated NRdTot=       0 NPtTot=           0 NUsed=           0 NTot=          32
 NSgBfM=   999   998   998   998   999 MxSgAt=    48 MxSgA2=    48.
 Leave Link  302 at Sun Apr  9 10:46:25 2023, MaxMem=  2684354560 cpu:              36.8 elap:               2.3
 (Enter /opt/gaussian/g16/l303.exe)
 DipDrv:  MaxL=1.
 Leave Link  303 at Sun Apr  9 10:46:25 2023, MaxMem=  2684354560 cpu:               4.7 elap:               0.3
 (Enter /opt/gaussian/g16/l401.exe)
 ExpMin= 9.52D-02 ExpMax= 6.07D+04 ExpMxC= 2.07D+03 IAcc=3 IRadAn=         5 AccDes= 0.00D+00
 Harris functional with IExCor= 1009 and IRadAn=       5 diagonalized for initial guess.
 HarFok:  IExCor= 1009 AccDes= 0.00D+00 IRadAn=         5 IDoV= 1 UseB2=F ITyADJ=14
 ICtDFT=  3500011 ScaDFX=  1.000000  1.000000  1.000000  1.000000
 FoFCou: FMM=F IPFlag=           0 FMFlag=      100000 FMFlg1=           0
         NFxFlg=           0 DoJE=T BraDBF=F KetDBF=T FulRan=T
         wScrn=  0.000000 ICntrl=       500 IOpCl=  0 I1Cent=   200000004 NGrid=           0
         NMat0=    1 NMatS0=      1 NMatT0=    0 NMatD0=    1 NMtDS0=    0 NMtDT0=    0
 Symmetry not used in FoFCou.
 Harris En= -1507.23437046169    
 JPrj=0 DoOrth=F DoCkMO=F.
 Leave Link  401 at Sun Apr  9 10:46:34 2023, MaxMem=  2684354560 cpu:             139.6 elap:               8.7
 (Enter /opt/gaussian/g16/l502.exe)
 Two-electron integral symmetry not used.
 Closed shell SCF:
 Using DIIS extrapolation, IDIIS=  1040.
 NGot=  2684354560 LenX=  2682275214 LenY=  2681246004
 Requested convergence on RMS density matrix=1.00D-08 within 128 cycles.
 Requested convergence on MAX density matrix=1.00D-06.
 Requested convergence on             energy=1.00D-06.
 No special actions if energy rises.
 Fock matrices will be formed incrementally for  20 cycles.
 Integral accuracy reduced to 1.0D-05 until final iterations.

 Cycle   1  Pass 0  IDiag  1:
 FoFJK:  IHMeth= 1 ICntrl=       0 DoSepK=F KAlg= 0 I1Cent=           0 FoldK=F
 IRaf= 780000000 NMat=       1 IRICut=       1 DoRegI=T DoRafI=F ISym2E= 0 IDoP0=0 IntGTp=1.
 FoFCou: FMM=F IPFlag=           0 FMFlag=      100000 FMFlg1=           0
         NFxFlg=           0 DoJE=F BraDBF=F KetDBF=F FulRan=T
         wScrn=  0.000000 ICntrl=         0 IOpCl=  0 I1Cent=           0 NGrid=           0
         NMat0=    1 NMatS0=      1 NMatT0=    0 NMatD0=    1 NMtDS0=    0 NMtDT0=    0
 Symmetry not used in FoFCou.
 E= -1507.05433295874    
 DIIS: error= 1.57D-02 at cycle   1 NSaved=   1.
 NSaved= 1 IEnMin= 1 EnMin= -1507.05433295874     IErMin= 1 ErrMin= 1.57D-02
 ErrMax= 1.57D-02  0.00D+00 EMaxC= 1.00D-01 BMatC= 1.03D+00 BMatP= 1.03D+00
 IDIUse=3 WtCom= 8.43D-01 WtEn= 1.57D-01
 Coeff-Com:  0.100D+01
 Coeff-En:   0.100D+01
 Coeff:      0.100D+01
 Gap=     0.069 Goal=   None    Shift=    0.000
 GapD=    0.069 DampG=0.500 DampE=0.500 DampFc=0.2500 IDamp=-1.
 Damping current iteration by 2.50D-01
 RMSDP=4.06D-03 MaxDP=9.17D-01              OVMax= 8.93D-01

 Cycle   2  Pass 0  IDiag  1:
 RMSU=  1.02D-03    CP:  1.00D+00
 E= -1507.31497798331     Delta-E=       -0.260645024561 Rises=F Damp=T
 DIIS: error= 8.97D-03 at cycle   2 NSaved=   2.
 NSaved= 2 IEnMin= 2 EnMin= -1507.31497798331     IErMin= 2 ErrMin= 8.97D-03
 ErrMax= 8.97D-03  0.00D+00 EMaxC= 1.00D-01 BMatC= 3.09D-01 BMatP= 1.03D+00
 IDIUse=3 WtCom= 9.10D-01 WtEn= 8.97D-02
 Coeff-Com: -0.774D+00 0.177D+01
 Coeff-En:   0.000D+00 0.100D+01
 Coeff:     -0.704D+00 0.170D+01
 Gap=     0.388 Goal=   None    Shift=    0.000
 RMSDP=1.30D-03 MaxDP=6.76D-02 DE=-2.61D-01 OVMax= 8.15D-01

 Cycle   3  Pass 0  IDiag  1:
 RMSU=  1.29D-03    CP:  9.94D-01  1.09D+00
 E= -1507.64389080296     Delta-E=       -0.328912819656 Rises=F Damp=F
 DIIS: error= 8.39D-03 at cycle   3 NSaved=   3.
 NSaved= 3 IEnMin= 3 EnMin= -1507.64389080296     IErMin= 3 ErrMin= 8.39D-03
 ErrMax= 8.39D-03  0.00D+00 EMaxC= 1.00D-01 BMatC= 1.79D-01 BMatP= 3.09D-01
 IDIUse=3 WtCom= 9.16D-01 WtEn= 8.39D-02
 Coeff-Com: -0.555D+00 0.106D+01 0.491D+00
 Coeff-En:   0.000D+00 0.000D+00 0.100D+01
 Coeff:     -0.509D+00 0.975D+00 0.534D+00
 Gap=     0.073 Goal=   None    Shift=    0.000
 RMSDP=8.06D-04 MaxDP=3.92D-02 DE=-3.29D-01 OVMax= 3.20D-01

 Cycle   4  Pass 0  IDiag  1:
 RMSU=  6.81D-04    CP:  9.96D-01  1.34D+00  7.31D-01
 E= -1507.84119618950     Delta-E=       -0.197305386536 Rises=F Damp=F
 DIIS: error= 1.78D-03 at cycle   4 NSaved=   4.
 NSaved= 4 IEnMin= 4 EnMin= -1507.84119618950     IErMin= 4 ErrMin= 1.78D-03
 ErrMax= 1.78D-03  0.00D+00 EMaxC= 1.00D-01 BMatC= 9.22D-03 BMatP= 1.79D-01
 IDIUse=3 WtCom= 9.82D-01 WtEn= 1.78D-02
 Coeff-Com: -0.176D+00 0.279D+00 0.203D+00 0.695D+00
 Coeff-En:   0.000D+00 0.000D+00 0.000D+00 0.100D+01
 Coeff:     -0.173D+00 0.274D+00 0.199D+00 0.700D+00
 Gap=     0.102 Goal=   None    Shift=    0.000
 RMSDP=1.94D-04 MaxDP=1.14D-02 DE=-1.97D-01 OVMax= 4.76D-02

 Cycle   5  Pass 0  IDiag  1:
 RMSU=  1.83D-04    CP:  9.96D-01  1.38D+00  7.56D-01  9.40D-01
 E= -1507.84749808135     Delta-E=       -0.006301891857 Rises=F Damp=F
 DIIS: error= 1.20D-03 at cycle   5 NSaved=   5.
 NSaved= 5 IEnMin= 5 EnMin= -1507.84749808135     IErMin= 5 ErrMin= 1.20D-03
 ErrMax= 1.20D-03  0.00D+00 EMaxC= 1.00D-01 BMatC= 1.91D-03 BMatP= 9.22D-03
 IDIUse=3 WtCom= 9.88D-01 WtEn= 1.20D-02
 Coeff-Com: -0.583D-01 0.820D-01 0.452D-01 0.345D+00 0.587D+00
 Coeff-En:   0.000D+00 0.000D+00 0.000D+00 0.135D+00 0.865D+00
 Coeff:     -0.576D-01 0.810D-01 0.447D-01 0.342D+00 0.590D+00
 Gap=     0.104 Goal=   None    Shift=    0.000
 RMSDP=9.46D-05 MaxDP=6.66D-03 DE=-6.30D-03 OVMax= 3.28D-02

 Cycle   6  Pass 0  IDiag  1:
 RMSU=  7.81D-05    CP:  9.96D-01  1.39D+00  7.33D-01  1.00D+00  1.02D+00
 E= -1507.84944419083     Delta-E=       -0.001946109472 Rises=F Damp=F
 DIIS: error= 2.68D-04 at cycle   6 NSaved=   6.
 NSaved= 6 IEnMin= 6 EnMin= -1507.84944419083     IErMin= 6 ErrMin= 2.68D-04
 ErrMax= 2.68D-04  0.00D+00 EMaxC= 1.00D-01 BMatC= 2.46D-04 BMatP= 1.91D-03
 IDIUse=3 WtCom= 9.97D-01 WtEn= 2.68D-03
 Coeff-Com: -0.872D-02 0.980D-02-0.453D-02 0.735D-01 0.312D+00 0.618D+00
 Coeff-En:   0.000D+00 0.000D+00 0.000D+00 0.000D+00 0.000D+00 0.100D+01
 Coeff:     -0.870D-02 0.977D-02-0.452D-02 0.733D-01 0.311D+00 0.619D+00
 Gap=     0.109 Goal=   None    Shift=    0.000
 RMSDP=3.65D-05 MaxDP=3.86D-03 DE=-1.95D-03 OVMax= 6.08D-03

 Cycle   7  Pass 0  IDiag  1:
 RMSU=  3.04D-05    CP:  9.96D-01  1.39D+00  7.35D-01  1.01D+00  1.12D+00
                    CP:  9.67D-01
 E= -1507.84967645613     Delta-E=       -0.000232265301 Rises=F Damp=F
 DIIS: error= 1.64D-04 at cycle   7 NSaved=   7.
 NSaved= 7 IEnMin= 7 EnMin= -1507.84967645613     IErMin= 7 ErrMin= 1.64D-04
 ErrMax= 1.64D-04  0.00D+00 EMaxC= 1.00D-01 BMatC= 3.08D-05 BMatP= 2.46D-04
 IDIUse=3 WtCom= 9.98D-01 WtEn= 1.64D-03
 Coeff-Com:  0.398D-02-0.617D-02-0.759D-02-0.187D-01 0.666D-01 0.286D+00
 Coeff-Com:  0.676D+00
 Coeff-En:   0.000D+00 0.000D+00 0.000D+00 0.000D+00 0.000D+00 0.000D+00
 Coeff-En:   0.100D+01
 Coeff:      0.397D-02-0.616D-02-0.757D-02-0.187D-01 0.664D-01 0.286D+00
 Coeff:      0.676D+00
 Gap=     0.109 Goal=   None    Shift=    0.000
 RMSDP=1.97D-05 MaxDP=1.31D-03 DE=-2.32D-04 OVMax= 3.30D-03

 Cycle   8  Pass 0  IDiag  1:
 RMSU=  1.55D-05    CP:  9.96D-01  1.39D+00  7.34D-01  1.01D+00  1.16D+00
                    CP:  1.06D+00  1.18D+00
 E= -1507.84971518488     Delta-E=       -0.000038728750 Rises=F Damp=F
 DIIS: error= 3.70D-05 at cycle   8 NSaved=   8.
 NSaved= 8 IEnMin= 8 EnMin= -1507.84971518488     IErMin= 8 ErrMin= 3.70D-05
 ErrMax= 3.70D-05  0.00D+00 EMaxC= 1.00D-01 BMatC= 5.25D-06 BMatP= 3.08D-05
 IDIUse=1 WtCom= 1.00D+00 WtEn= 0.00D+00
 Coeff-Com:  0.284D-02-0.380D-02-0.605D-03-0.167D-01-0.160D-01-0.710D-03
 Coeff-Com:  0.265D+00 0.769D+00
 Coeff:      0.284D-02-0.380D-02-0.605D-03-0.167D-01-0.160D-01-0.710D-03
 Coeff:      0.265D+00 0.769D+00
 Gap=     0.110 Goal=   None    Shift=    0.000
 RMSDP=1.84D-05 MaxDP=2.72D-03 DE=-3.87D-05 OVMax= 1.23D-03

 Cycle   9  Pass 0  IDiag  1:
 RMSU=  1.29D-05    CP:  9.95D-01  1.38D+00  7.35D-01  1.01D+00  1.17D+00
                    CP:  1.10D+00  1.42D+00  1.49D+00
 E= -1507.84972466380     Delta-E=       -0.000009478929 Rises=F Damp=F
 DIIS: error= 2.04D-05 at cycle   9 NSaved=   9.
 NSaved= 9 IEnMin= 9 EnMin= -1507.84972466380     IErMin= 9 ErrMin= 2.04D-05
 ErrMax= 2.04D-05  0.00D+00 EMaxC= 1.00D-01 BMatC= 7.44D-07 BMatP= 5.25D-06
 IDIUse=1 WtCom= 1.00D+00 WtEn= 0.00D+00
 Coeff-Com:  0.468D-03-0.540D-03 0.104D-02-0.258D-02-0.102D-01-0.393D-01
 Coeff-Com: -0.644D-02 0.246D+00 0.812D+00
 Coeff:      0.468D-03-0.540D-03 0.104D-02-0.258D-02-0.102D-01-0.393D-01
 Coeff:     -0.644D-02 0.246D+00 0.812D+00
 Gap=     0.110 Goal=   None    Shift=    0.000
 RMSDP=2.40D-05 MaxDP=2.31D-03 DE=-9.48D-06 OVMax= 4.59D-04

 Cycle  10  Pass 0  IDiag  1:
 RMSU=  1.03D-05    CP:  9.95D-01  1.38D+00  7.37D-01  1.01D+00  1.17D+00
                    CP:  1.12D+00  1.68D+00  2.29D+00  2.17D+00
 E= -1507.84972831978     Delta-E=       -0.000003655973 Rises=F Damp=F
 DIIS: error= 3.16D-05 at cycle  10 NSaved=  10.
 NSaved=10 IEnMin=10 EnMin= -1507.84972831978     IErMin= 9 ErrMin= 2.04D-05
 ErrMax= 3.16D-05  0.00D+00 EMaxC= 1.00D-01 BMatC= 6.17D-07 BMatP= 7.44D-07
 IDIUse=1 WtCom= 1.00D+00 WtEn= 0.00D+00
 Coeff-Com:  0.346D-03-0.414D-03 0.790D-03-0.164D-02-0.697D-02-0.296D-01
 Coeff-Com: -0.106D-01 0.168D+00 0.621D+00 0.258D+00
 Coeff:      0.346D-03-0.414D-03 0.790D-03-0.164D-02-0.697D-02-0.296D-01
 Coeff:     -0.106D-01 0.168D+00 0.621D+00 0.258D+00
 Gap=     0.110 Goal=   None    Shift=    0.000
 RMSDP=1.08D-05 MaxDP=1.05D-03 DE=-3.66D-06 OVMax= 7.76D-05

 Cycle  11  Pass 0  IDiag  1:
 RMSU=  2.16D-06    CP:  9.95D-01  1.37D+00  7.37D-01  1.02D+00  1.16D+00
                    CP:  1.13D+00  1.77D+00  2.63D+00  2.72D+00  1.46D+00
 E= -1507.84974005742     Delta-E=       -0.000011737645 Rises=F Damp=F
 DIIS: error= 3.94D-05 at cycle  11 NSaved=  11.
 NSaved=11 IEnMin=11 EnMin= -1507.84974005742     IErMin= 9 ErrMin= 2.04D-05
 ErrMax= 3.94D-05  0.00D+00 EMaxC= 1.00D-01 BMatC= 8.42D-07 BMatP= 6.17D-07
 IDIUse=1 WtCom= 1.00D+00 WtEn= 0.00D+00
 Coeff-Com: -0.110D-04 0.288D-04 0.944D-03 0.110D-02-0.468D-02-0.357D-01
 Coeff-Com: -0.632D-01 0.611D-01 0.789D+00 0.234D+01-0.209D+01
 Coeff:     -0.110D-04 0.288D-04 0.944D-03 0.110D-02-0.468D-02-0.357D-01
 Coeff:     -0.632D-01 0.611D-01 0.789D+00 0.234D+01-0.209D+01
 Gap=     0.110 Goal=   None    Shift=    0.000
 RMSDP=4.05D-05 MaxDP=3.76D-03 DE=-1.17D-05 OVMax= 9.17D-05

 Cycle  12  Pass 0  IDiag  1:
 RMSU=  1.46D-05    CP:  9.95D-01  1.37D+00  7.34D-01  1.01D+00  1.17D+00
                    CP:  1.12D+00  1.43D+00  1.41D+00  1.27D+00 -6.70D-01
                    CP: -3.00D+00
 E= -1507.84969338666     Delta-E=        0.000046670766 Rises=F Damp=F
 DIIS: error= 1.44D-05 at cycle  12 NSaved=  12.
 NSaved=12 IEnMin=11 EnMin= -1507.84974005742     IErMin=12 ErrMin= 1.44D-05
 ErrMax= 1.44D-05  0.00D+00 EMaxC= 1.00D-01 BMatC= 1.70D-07 BMatP= 6.17D-07
 IDIUse=1 WtCom= 1.00D+00 WtEn= 0.00D+00
 Coeff-Com: -0.121D-03 0.169D-03 0.476D-03 0.141D-02-0.166D-03-0.139D-01
 Coeff-Com: -0.413D-01-0.303D-01 0.301D+00 0.158D+01-0.150D+01 0.703D+00
 Coeff:     -0.121D-03 0.169D-03 0.476D-03 0.141D-02-0.166D-03-0.139D-01
 Coeff:     -0.413D-01-0.303D-01 0.301D+00 0.158D+01-0.150D+01 0.703D+00
 Gap=     0.110 Goal=   None    Shift=    0.000
 RMSDP=1.52D-05 MaxDP=1.99D-03 DE= 4.67D-05 OVMax= 1.43D-04

 Cycle  13  Pass 0  IDiag  1:
 RMSU=  6.75D-06    CP:  9.95D-01  1.37D+00  7.33D-01  1.01D+00  1.17D+00
                    CP:  1.12D+00  1.41D+00  1.24D+00  1.31D+00 -1.07D+00
                    CP: -3.00D+00  1.79D+00
 E= -1507.84967992265     Delta-E=        0.000013464012 Rises=F Damp=F
 DIIS: error= 1.22D-05 at cycle  13 NSaved=  13.
 NSaved=13 IEnMin=11 EnMin= -1507.84974005742     IErMin=13 ErrMin= 1.22D-05
 ErrMax= 1.22D-05  0.00D+00 EMaxC= 1.00D-01 BMatC= 6.10D-08 BMatP= 1.70D-07
 IDIUse=1 WtCom= 1.00D+00 WtEn= 0.00D+00
 Coeff-Com: -0.452D-06 0.600D-05 0.164D-03 0.373D-03 0.626D-03-0.918D-03
 Coeff-Com: -0.834D-02-0.215D-01 0.240D-02 0.298D+00-0.352D+00 0.312D+00
 Coeff-Com:  0.769D+00
 Coeff:     -0.452D-06 0.600D-05 0.164D-03 0.373D-03 0.626D-03-0.918D-03
 Coeff:     -0.834D-02-0.215D-01 0.240D-02 0.298D+00-0.352D+00 0.312D+00
 Coeff:      0.769D+00
 Gap=     0.110 Goal=   None    Shift=    0.000
 RMSDP=1.31D-05 MaxDP=1.98D-03 DE= 1.35D-05 OVMax= 9.07D-05

 Problem detected with inexpensive integrals.
 Switching to full accuracy and repeating last cycle.
 Cycle  14  Pass 1  IDiag  1:
 E= -1507.84958363211     Delta-E=        0.000096290531 Rises=F Damp=F
 DIIS: error= 3.88D-04 at cycle   1 NSaved=   1.
 NSaved= 1 IEnMin= 1 EnMin= -1507.84958363211     IErMin= 1 ErrMin= 3.88D-04
 ErrMax= 3.88D-04  0.00D+00 EMaxC= 1.00D-01 BMatC= 8.34D-05 BMatP= 8.34D-05
 IDIUse=3 WtCom= 9.96D-01 WtEn= 3.88D-03
 Coeff-Com:  0.100D+01
 Coeff-En:   0.100D+01
 Coeff:      0.100D+01
 Gap=     0.110 Goal=   None    Shift=    0.000
 RMSDP=4.77D-04 MaxDP=3.54D-02 DE= 9.63D-05 OVMax= 8.46D-04

 Cycle  15  Pass 1  IDiag  1:
 RMSU=  4.76D-04    CP:  9.95D-01
 E= -1507.84963567637     Delta-E=       -0.000052044252 Rises=F Damp=F
 DIIS: error= 8.22D-06 at cycle   2 NSaved=   2.
 NSaved= 2 IEnMin= 2 EnMin= -1507.84963567637     IErMin= 2 ErrMin= 8.22D-06
 ErrMax= 8.22D-06  0.00D+00 EMaxC= 1.00D-01 BMatC= 1.03D-07 BMatP= 8.34D-05
 IDIUse=1 WtCom= 1.00D+00 WtEn= 0.00D+00
 Coeff-Com: -0.154D-01 0.102D+01
 Coeff:     -0.154D-01 0.102D+01
 Gap=     0.110 Goal=   None    Shift=    0.000
 RMSDP=1.72D-05 MaxDP=1.09D-03 DE=-5.20D-05 OVMax= 5.71D-04

 Cycle  16  Pass 1  IDiag  1:
 RMSU=  6.58D-06    CP:  9.95D-01  1.03D+00
 E= -1507.84963559043     Delta-E=        0.000000085939 Rises=F Damp=F
 DIIS: error= 1.14D-05 at cycle   3 NSaved=   3.
 NSaved= 3 IEnMin= 2 EnMin= -1507.84963567637     IErMin= 2 ErrMin= 8.22D-06
 ErrMax= 1.14D-05  0.00D+00 EMaxC= 1.00D-01 BMatC= 2.24D-07 BMatP= 1.03D-07
 IDIUse=1 WtCom= 1.00D+00 WtEn= 0.00D+00
 Coeff-Com: -0.106D-01 0.642D+00 0.368D+00
 Coeff:     -0.106D-01 0.642D+00 0.368D+00
 Gap=     0.110 Goal=   None    Shift=    0.000
 RMSDP=8.25D-07 MaxDP=8.21D-05 DE= 8.59D-08 OVMax= 3.41D-04

 Cycle  17  Pass 1  IDiag  1:
 RMSU=  7.98D-07    CP:  9.95D-01  1.03D+00  9.90D-01
 E= -1507.84963581367     Delta-E=       -0.000000223242 Rises=F Damp=F
 DIIS: error= 1.24D-06 at cycle   4 NSaved=   4.
 NSaved= 4 IEnMin= 4 EnMin= -1507.84963581367     IErMin= 4 ErrMin= 1.24D-06
 ErrMax= 1.24D-06  0.00D+00 EMaxC= 1.00D-01 BMatC= 2.23D-09 BMatP= 1.03D-07
 IDIUse=1 WtCom= 1.00D+00 WtEn= 0.00D+00
 Coeff-Com: -0.120D-02 0.621D-01 0.823D-01 0.857D+00
 Coeff:     -0.120D-02 0.621D-01 0.823D-01 0.857D+00
 Gap=     0.110 Goal=   None    Shift=    0.000
 RMSDP=4.13D-07 MaxDP=2.50D-05 DE=-2.23D-07 OVMax= 9.57D-05

 Cycle  18  Pass 1  IDiag  1:
 RMSU=  2.07D-07    CP:  9.95D-01  1.03D+00  1.03D+00  9.73D-01
 E= -1507.84963581570     Delta-E=       -0.000000002031 Rises=F Damp=F
 DIIS: error= 1.16D-06 at cycle   5 NSaved=   5.
 NSaved= 5 IEnMin= 5 EnMin= -1507.84963581570     IErMin= 5 ErrMin= 1.16D-06
 ErrMax= 1.16D-06  0.00D+00 EMaxC= 1.00D-01 BMatC= 2.56D-09 BMatP= 2.23D-09
 IDIUse=1 WtCom= 1.00D+00 WtEn= 0.00D+00
 Coeff-Com:  0.454D-03-0.344D-01-0.843D-03 0.566D+00 0.469D+00
 Coeff:      0.454D-03-0.344D-01-0.843D-03 0.566D+00 0.469D+00
 Gap=     0.110 Goal=   None    Shift=    0.000
 RMSDP=1.08D-07 MaxDP=6.03D-06 DE=-2.03D-09 OVMax= 1.96D-05

 Cycle  19  Pass 1  IDiag  1:
 RMSU=  7.77D-08    CP:  9.95D-01  1.03D+00  1.03D+00  1.03D+00  1.05D+00
 E= -1507.84963581825     Delta-E=       -0.000000002546 Rises=F Damp=F
 DIIS: error= 2.25D-07 at cycle   6 NSaved=   6.
 NSaved= 6 IEnMin= 6 EnMin= -1507.84963581825     IErMin= 6 ErrMin= 2.25D-07
 ErrMax= 2.25D-07  0.00D+00 EMaxC= 1.00D-01 BMatC= 1.47D-10 BMatP= 2.23D-09
 IDIUse=1 WtCom= 1.00D+00 WtEn= 0.00D+00
 Coeff-Com:  0.306D-03-0.198D-01-0.209D-01 0.133D+00 0.123D+00 0.785D+00
 Coeff:      0.306D-03-0.198D-01-0.209D-01 0.133D+00 0.123D+00 0.785D+00
 Gap=     0.110 Goal=   None    Shift=    0.000
 RMSDP=4.64D-08 MaxDP=3.86D-06 DE=-2.55D-09 OVMax= 1.45D-05

 Cycle  20  Pass 1  IDiag  1:
 RMSU=  2.90D-08    CP:  9.95D-01  1.03D+00  1.03D+00  1.04D+00  1.19D+00
                    CP:  1.24D+00
 E= -1507.84963581845     Delta-E=       -0.000000000207 Rises=F Damp=F
 DIIS: error= 1.90D-07 at cycle   7 NSaved=   7.
 NSaved= 7 IEnMin= 7 EnMin= -1507.84963581845     IErMin= 7 ErrMin= 1.90D-07
 ErrMax= 1.90D-07  0.00D+00 EMaxC= 1.00D-01 BMatC= 6.99D-11 BMatP= 1.47D-10
 IDIUse=1 WtCom= 1.00D+00 WtEn= 0.00D+00
 Coeff-Com: -0.277D-04 0.344D-02-0.163D-01-0.114D+00-0.147D+00 0.384D+00
 Coeff-Com:  0.890D+00
 Coeff:     -0.277D-04 0.344D-02-0.163D-01-0.114D+00-0.147D+00 0.384D+00
 Coeff:      0.890D+00
 Gap=     0.110 Goal=   None    Shift=    0.000
 RMSDP=4.12D-08 MaxDP=3.68D-06 DE=-2.07D-10 OVMax= 1.06D-05

 Cycle  21  Pass 1  IDiag  1:
 RMSU=  1.69D-08    CP:  9.95D-01  1.03D+00  1.03D+00  1.06D+00  1.30D+00
                    CP:  1.51D+00  1.53D+00
 E= -1507.84963581857     Delta-E=       -0.000000000118 Rises=F Damp=F
 DIIS: error= 6.91D-08 at cycle   8 NSaved=   8.
 NSaved= 8 IEnMin= 8 EnMin= -1507.84963581857     IErMin= 8 ErrMin= 6.91D-08
 ErrMax= 6.91D-08  0.00D+00 EMaxC= 1.00D-01 BMatC= 7.92D-12 BMatP= 6.99D-11
 IDIUse=1 WtCom= 1.00D+00 WtEn= 0.00D+00
 Coeff-Com: -0.584D-04 0.454D-02-0.652D-02-0.667D-01-0.928D-01 0.850D-01
 Coeff-Com:  0.399D+00 0.678D+00
 Coeff:     -0.584D-04 0.454D-02-0.652D-02-0.667D-01-0.928D-01 0.850D-01
 Coeff:      0.399D+00 0.678D+00
 Gap=     0.110 Goal=   None    Shift=    0.000
 RMSDP=1.23D-08 MaxDP=9.87D-07 DE=-1.18D-10 OVMax= 3.21D-06

 Cycle  22  Pass 1  IDiag  1:
 RMSU=  6.10D-09    CP:  9.95D-01  1.03D+00  1.03D+00  1.06D+00  1.32D+00
                    CP:  1.57D+00  1.73D+00  1.19D+00
 E= -1507.84963581855     Delta-E=        0.000000000018 Rises=F Damp=F
 DIIS: error= 1.85D-08 at cycle   9 NSaved=   9.
 NSaved= 9 IEnMin= 8 EnMin= -1507.84963581857     IErMin= 9 ErrMin= 1.85D-08
 ErrMax= 1.85D-08  0.00D+00 EMaxC= 1.00D-01 BMatC= 1.22D-12 BMatP= 7.92D-12
 IDIUse=1 WtCom= 1.00D+00 WtEn= 0.00D+00
 Coeff-Com: -0.238D-04 0.159D-02-0.732D-03-0.102D-01-0.203D-01-0.260D-01
 Coeff-Com:  0.167D-01 0.293D+00 0.746D+00
 Coeff:     -0.238D-04 0.159D-02-0.732D-03-0.102D-01-0.203D-01-0.260D-01
 Coeff:      0.167D-01 0.293D+00 0.746D+00
 Gap=     0.110 Goal=   None    Shift=    0.000
 RMSDP=5.39D-09 MaxDP=4.95D-07 DE= 1.82D-11 OVMax= 1.67D-06

 SCF Done:  E(RM062X) =  -1507.84963582     A.U. after   22 cycles
            NFock= 22  Conv=0.54D-08     -V/T= 2.0038
 KE= 1.502073022095D+03 PE=-8.394261233854D+03 EE= 2.956329432712D+03
 Leave Link  502 at Sun Apr  9 11:08:40 2023, MaxMem=  2684354560 cpu:           21206.0 elap:            1325.8
 (Enter /opt/gaussian/g16/l601.exe)
 Copying SCF densities to generalized density rwf, IOpCl= 0 IROHF=0.

 **********************************************************************

            Population analysis using the SCF density.

 **********************************************************************

 Alpha  occ. eigenvalues --  -89.84990 -19.66650 -19.64324 -19.63007 -19.61442
 Alpha  occ. eigenvalues --  -19.54805 -14.87306 -14.79086 -10.68028 -10.66255
 Alpha  occ. eigenvalues --  -10.64252 -10.63442 -10.61604 -10.61461 -10.61311
 Alpha  occ. eigenvalues --  -10.60250 -10.60019 -10.58815 -10.57219 -10.55170
 Alpha  occ. eigenvalues --  -10.51241 -10.50915 -10.50059 -10.47839  -8.20967
 Alpha  occ. eigenvalues --   -6.12925  -6.12702  -6.12460  -1.21491  -1.19913
 Alpha  occ. eigenvalues --   -1.17325  -1.15069  -1.13989  -1.08172  -1.03350
 Alpha  occ. eigenvalues --   -0.97765  -0.93151  -0.89920  -0.87991  -0.86534
 Alpha  occ. eigenvalues --   -0.83895  -0.81692  -0.80215  -0.77653  -0.76532
 Alpha  occ. eigenvalues --   -0.72612  -0.70091  -0.69781  -0.68821  -0.66829
 Alpha  occ. eigenvalues --   -0.64704  -0.64092  -0.62820  -0.62161  -0.61367
 Alpha  occ. eigenvalues --   -0.59850  -0.57719  -0.57033  -0.56258  -0.55716
 Alpha  occ. eigenvalues --   -0.55217  -0.54461  -0.53247  -0.51973  -0.51367
 Alpha  occ. eigenvalues --   -0.50910  -0.50031  -0.49742  -0.49393  -0.48883
 Alpha  occ. eigenvalues --   -0.48246  -0.48037  -0.47253  -0.47111  -0.45758
 Alpha  occ. eigenvalues --   -0.44912  -0.44458  -0.43616  -0.42262  -0.41981
 Alpha  occ. eigenvalues --   -0.41001  -0.39651  -0.39067  -0.38567  -0.37947
 Alpha  occ. eigenvalues --   -0.37191  -0.37041  -0.36361  -0.35989  -0.35792
 Alpha  occ. eigenvalues --   -0.35022  -0.33986  -0.27048  -0.26104  -0.18616
 Alpha virt. eigenvalues --   -0.07646  -0.04364   0.03503   0.03797   0.04630
 Alpha virt. eigenvalues --    0.05119   0.06811   0.06969   0.08048   0.08977
 Alpha virt. eigenvalues --    0.09548   0.09753   0.10569   0.10843   0.10919
 Alpha virt. eigenvalues --    0.11508   0.11768   0.12473   0.13394   0.13654
 Alpha virt. eigenvalues --    0.13854   0.14483   0.14645   0.15095   0.15560
 Alpha virt. eigenvalues --    0.16217   0.16811   0.16958   0.17186   0.17702
 Alpha virt. eigenvalues --    0.17997   0.18711   0.18928   0.19360   0.19721
 Alpha virt. eigenvalues --    0.20274   0.20517   0.20972   0.21760   0.22249
 Alpha virt. eigenvalues --    0.22668   0.22866   0.23440   0.23741   0.24062
 Alpha virt. eigenvalues --    0.24612   0.24953   0.25511   0.25936   0.26575
 Alpha virt. eigenvalues --    0.26725   0.27318   0.27754   0.28028   0.28490
 Alpha virt. eigenvalues --    0.29144   0.29705   0.30061   0.30463   0.30765
 Alpha virt. eigenvalues --    0.31391   0.31785   0.31912   0.32315   0.32630
 Alpha virt. eigenvalues --    0.33186   0.33861   0.34255   0.34815   0.35259
 Alpha virt. eigenvalues --    0.36273   0.36822   0.36945   0.37162   0.37698
 Alpha virt. eigenvalues --    0.38090   0.38950   0.39232   0.39735   0.39978
 Alpha virt. eigenvalues --    0.40262   0.40445   0.41254   0.41474   0.41632
 Alpha virt. eigenvalues --    0.42324   0.42488   0.42729   0.43642   0.43777
 Alpha virt. eigenvalues --    0.44317   0.44650   0.44796   0.45208   0.45556
 Alpha virt. eigenvalues --    0.46081   0.46469   0.46735   0.47061   0.47421
 Alpha virt. eigenvalues --    0.47681   0.47777   0.48303   0.48556   0.48598
 Alpha virt. eigenvalues --    0.49181   0.49698   0.50214   0.50379   0.50807
 Alpha virt. eigenvalues --    0.51512   0.51518   0.52201   0.52457   0.52720
 Alpha virt. eigenvalues --    0.52990   0.53529   0.53920   0.54164   0.54620
 Alpha virt. eigenvalues --    0.54772   0.55180   0.55723   0.56487   0.57079
 Alpha virt. eigenvalues --    0.57206   0.57831   0.58588   0.58830   0.58870
 Alpha virt. eigenvalues --    0.59389   0.59727   0.60702   0.60940   0.61467
 Alpha virt. eigenvalues --    0.62154   0.62685   0.63180   0.64406   0.64892
 Alpha virt. eigenvalues --    0.65632   0.65943   0.66028   0.67224   0.67869
 Alpha virt. eigenvalues --    0.68218   0.68516   0.69314   0.69556   0.70404
 Alpha virt. eigenvalues --    0.70653   0.71124   0.72154   0.72475   0.73184
 Alpha virt. eigenvalues --    0.74099   0.74651   0.75303   0.76056   0.76617
 Alpha virt. eigenvalues --    0.77657   0.78143   0.78501   0.79880   0.80768
 Alpha virt. eigenvalues --    0.80933   0.82040   0.82168   0.83181   0.83692
 Alpha virt. eigenvalues --    0.84104   0.84826   0.85045   0.85592   0.86344
 Alpha virt. eigenvalues --    0.87129   0.87905   0.88430   0.88980   0.89875
 Alpha virt. eigenvalues --    0.90190   0.91091   0.91241   0.92108   0.92624
 Alpha virt. eigenvalues --    0.92945   0.94240   0.94595   0.95114   0.95412
 Alpha virt. eigenvalues --    0.96157   0.97540   0.97676   0.98494   0.98939
 Alpha virt. eigenvalues --    0.99868   1.00558   1.01121   1.02142   1.03305
 Alpha virt. eigenvalues --    1.03548   1.04213   1.04455   1.04982   1.05906
 Alpha virt. eigenvalues --    1.07422   1.07536   1.08430   1.08510   1.08998
 Alpha virt. eigenvalues --    1.09931   1.10532   1.11627   1.12208   1.13257
 Alpha virt. eigenvalues --    1.13584   1.13660   1.14397   1.14839   1.15228
 Alpha virt. eigenvalues --    1.16470   1.17110   1.17642   1.18045   1.18939
 Alpha virt. eigenvalues --    1.19441   1.21397   1.21454   1.21911   1.22818
 Alpha virt. eigenvalues --    1.23192   1.23864   1.25223   1.25699   1.26175
 Alpha virt. eigenvalues --    1.26386   1.28065   1.28313   1.29935   1.30251
 Alpha virt. eigenvalues --    1.30958   1.31987   1.32270   1.33940   1.34313
 Alpha virt. eigenvalues --    1.34706   1.35987   1.36834   1.38311   1.38805
 Alpha virt. eigenvalues --    1.39196   1.40607   1.41054   1.42497   1.43799
 Alpha virt. eigenvalues --    1.44296   1.45267   1.46685   1.48039   1.48614
 Alpha virt. eigenvalues --    1.49685   1.50274   1.51116   1.51740   1.52781
 Alpha virt. eigenvalues --    1.53333   1.53416   1.53571   1.55038   1.55895
 Alpha virt. eigenvalues --    1.56122   1.56613   1.57487   1.57827   1.58569
 Alpha virt. eigenvalues --    1.59062   1.59344   1.59929   1.60347   1.61087
 Alpha virt. eigenvalues --    1.61631   1.61763   1.62390   1.62625   1.62976
 Alpha virt. eigenvalues --    1.63318   1.64109   1.64517   1.65817   1.66456
 Alpha virt. eigenvalues --    1.67046   1.67415   1.67490   1.67740   1.68904
 Alpha virt. eigenvalues --    1.69228   1.69421   1.70145   1.71079   1.71378
 Alpha virt. eigenvalues --    1.72635   1.72706   1.73082   1.73894   1.73979
 Alpha virt. eigenvalues --    1.75076   1.75557   1.75897   1.76452   1.77582
 Alpha virt. eigenvalues --    1.78658   1.79408   1.80270   1.80935   1.81054
 Alpha virt. eigenvalues --    1.82104   1.82607   1.82996   1.84236   1.85111
 Alpha virt. eigenvalues --    1.86027   1.86588   1.87064   1.87933   1.88981
 Alpha virt. eigenvalues --    1.89635   1.90095   1.90429   1.90624   1.90923
 Alpha virt. eigenvalues --    1.91324   1.92498   1.92779   1.93168   1.93292
 Alpha virt. eigenvalues --    1.94462   1.95154   1.95621   1.96068   1.97026
 Alpha virt. eigenvalues --    1.97698   1.98211   1.98775   1.99767   2.00361
 Alpha virt. eigenvalues --    2.01633   2.02860   2.03169   2.04154   2.04940
 Alpha virt. eigenvalues --    2.05402   2.05544   2.06893   2.07635   2.08389
 Alpha virt. eigenvalues --    2.09168   2.09271   2.09941   2.10660   2.10976
 Alpha virt. eigenvalues --    2.11877   2.12327   2.13957   2.13989   2.15127
 Alpha virt. eigenvalues --    2.15443   2.15743   2.16989   2.17723   2.18656
 Alpha virt. eigenvalues --    2.19200   2.19458   2.20208   2.21570   2.21619
 Alpha virt. eigenvalues --    2.22326   2.22590   2.23460   2.24640   2.25324
 Alpha virt. eigenvalues --    2.26665   2.27457   2.27756   2.27925   2.28594
 Alpha virt. eigenvalues --    2.29363   2.29818   2.30428   2.30923   2.31646
 Alpha virt. eigenvalues --    2.32209   2.32383   2.33266   2.33783   2.34648
 Alpha virt. eigenvalues --    2.35088   2.36948   2.37692   2.38382   2.38679
 Alpha virt. eigenvalues --    2.39967   2.40973   2.41613   2.43144   2.43447
 Alpha virt. eigenvalues --    2.44594   2.45275   2.45487   2.46079   2.46540
 Alpha virt. eigenvalues --    2.46833   2.47183   2.47868   2.48614   2.48970
 Alpha virt. eigenvalues --    2.50451   2.51308   2.52580   2.53598   2.53641
 Alpha virt. eigenvalues --    2.54901   2.56412   2.57079   2.57957   2.58389
 Alpha virt. eigenvalues --    2.59147   2.59671   2.60401   2.60808   2.61445
 Alpha virt. eigenvalues --    2.62020   2.62116   2.62525   2.63738   2.64555
 Alpha virt. eigenvalues --    2.65339   2.65772   2.66444   2.67224   2.67687
 Alpha virt. eigenvalues --    2.68682   2.69086   2.69624   2.70085   2.70731
 Alpha virt. eigenvalues --    2.70951   2.71899   2.72989   2.73250   2.73704
 Alpha virt. eigenvalues --    2.74362   2.75100   2.75627   2.76333   2.77524
 Alpha virt. eigenvalues --    2.77956   2.78310   2.79252   2.79680   2.80185
 Alpha virt. eigenvalues --    2.80993   2.81690   2.82851   2.83491   2.83598
 Alpha virt. eigenvalues --    2.84409   2.85242   2.85650   2.86495   2.87388
 Alpha virt. eigenvalues --    2.87780   2.88864   2.89919   2.91234   2.91725
 Alpha virt. eigenvalues --    2.92470   2.93049   2.94220   2.94505   2.95155
 Alpha virt. eigenvalues --    2.95761   2.97221   2.97940   2.99145   2.99185
 Alpha virt. eigenvalues --    3.00285   3.00892   3.01175   3.01664   3.02563
 Alpha virt. eigenvalues --    3.02871   3.04095   3.04705   3.05395   3.05913
 Alpha virt. eigenvalues --    3.06644   3.07082   3.07489   3.07907   3.09023
 Alpha virt. eigenvalues --    3.10253   3.10330   3.10999   3.11664   3.12468
 Alpha virt. eigenvalues --    3.12638   3.13357   3.13820   3.14593   3.15140
 Alpha virt. eigenvalues --    3.16146   3.16461   3.16630   3.17894   3.18354
 Alpha virt. eigenvalues --    3.18543   3.19356   3.19419   3.20176   3.20801
 Alpha virt. eigenvalues --    3.20951   3.21640   3.23050   3.23785   3.24248
 Alpha virt. eigenvalues --    3.24546   3.24659   3.26204   3.27064   3.27478
 Alpha virt. eigenvalues --    3.27643   3.28624   3.29430   3.30059   3.30654
 Alpha virt. eigenvalues --    3.31294   3.31563   3.31885   3.32582   3.33340
 Alpha virt. eigenvalues --    3.34247   3.35044   3.35361   3.35754   3.36573
 Alpha virt. eigenvalues --    3.36857   3.37430   3.38025   3.38374   3.38724
 Alpha virt. eigenvalues --    3.39301   3.39917   3.40399   3.40940   3.41680
 Alpha virt. eigenvalues --    3.42084   3.42874   3.43776   3.44502   3.44845
 Alpha virt. eigenvalues --    3.45529   3.46392   3.46977   3.47644   3.47906
 Alpha virt. eigenvalues --    3.48678   3.49057   3.49946   3.51019   3.52527
 Alpha virt. eigenvalues --    3.52709   3.53255   3.53474   3.53602   3.55078
 Alpha virt. eigenvalues --    3.55576   3.56400   3.56764   3.57973   3.58722
 Alpha virt. eigenvalues --    3.59391   3.61354   3.62977   3.63083   3.64932
 Alpha virt. eigenvalues --    3.65929   3.66019   3.67480   3.68839   3.69450
 Alpha virt. eigenvalues --    3.70671   3.71117   3.72086   3.73146   3.74315
 Alpha virt. eigenvalues --    3.74763   3.75393   3.76392   3.77626   3.78878
 Alpha virt. eigenvalues --    3.79742   3.80420   3.81544   3.82259   3.83292
 Alpha virt. eigenvalues --    3.84755   3.85347   3.86503   3.87584   3.88324
 Alpha virt. eigenvalues --    3.88743   3.90125   3.91531   3.92244   3.93198
 Alpha virt. eigenvalues --    3.94029   3.94605   3.96060   3.96815   3.99117
 Alpha virt. eigenvalues --    4.00478   4.00783   4.02276   4.04554   4.05882
 Alpha virt. eigenvalues --    4.06543   4.06979   4.08092   4.10188   4.10619
 Alpha virt. eigenvalues --    4.11671   4.12577   4.14232   4.15003   4.18194
 Alpha virt. eigenvalues --    4.18457   4.19738   4.20099   4.23432   4.25564
 Alpha virt. eigenvalues --    4.26507   4.26844   4.28124   4.29581   4.30720
 Alpha virt. eigenvalues --    4.31545   4.32503   4.33810   4.34127   4.35327
 Alpha virt. eigenvalues --    4.37194   4.38775   4.38962   4.40067   4.40870
 Alpha virt. eigenvalues --    4.43282   4.44207   4.45871   4.46287   4.46729
 Alpha virt. eigenvalues --    4.48634   4.50487   4.53517   4.54293   4.56792
 Alpha virt. eigenvalues --    4.59277   4.60450   4.61635   4.64557   4.67411
 Alpha virt. eigenvalues --    4.69346   4.71935   4.73467   4.74712   4.75397
 Alpha virt. eigenvalues --    4.76989   4.78126   4.79614   4.80258   4.81678
 Alpha virt. eigenvalues --    4.83012   4.86191   4.87879   4.88408   4.90314
 Alpha virt. eigenvalues --    4.91486   4.93272   4.94744   4.96107   4.96781
 Alpha virt. eigenvalues --    4.98079   4.98698   5.00893   5.01758   5.04121
 Alpha virt. eigenvalues --    5.05311   5.08223   5.10968   5.15133   5.18025
 Alpha virt. eigenvalues --    5.18854   5.22050   5.24420   5.28033   5.28924
 Alpha virt. eigenvalues --    5.29214   5.29599   5.29988   5.31337   5.36257
 Alpha virt. eigenvalues --    5.37990   5.40798   5.42833   5.44608   5.46250
 Alpha virt. eigenvalues --    5.48113   5.49847   5.52780   5.54003   5.59938
 Alpha virt. eigenvalues --    5.62081   5.63308   5.70607   5.73844   5.75628
 Alpha virt. eigenvalues --    5.76744   5.78981   5.80998   5.82530   5.83727
 Alpha virt. eigenvalues --    5.84591   5.86306   5.87839   5.90063   5.94189
 Alpha virt. eigenvalues --    5.97381   6.00637   6.06617   6.16871   6.17920
 Alpha virt. eigenvalues --    6.21691   6.23678   6.27670   6.31106   6.36855
 Alpha virt. eigenvalues --    6.40186   6.40570   6.50530   6.51792   6.54816
 Alpha virt. eigenvalues --    6.55459   6.63125   6.68952   6.72226   6.72563
 Alpha virt. eigenvalues --    6.75291   6.78369   6.82760   6.84259   6.85851
 Alpha virt. eigenvalues --    6.89075   6.91960   6.98780   7.05692   7.06562
 Alpha virt. eigenvalues --    7.07801   7.09985   7.12292   7.16531   7.22940
 Alpha virt. eigenvalues --    7.26804   7.31644   9.05271   9.44631   9.58158
 Alpha virt. eigenvalues --   19.91530  22.35249  22.44299  22.55361  22.57521
 Alpha virt. eigenvalues --   22.62158  22.68601  22.68895  22.75611  22.78417
 Alpha virt. eigenvalues --   22.82503  22.91847  22.93671  23.05817  23.17592
 Alpha virt. eigenvalues --   23.21943  23.38045  32.09119  33.14001  44.10739
 Alpha virt. eigenvalues --   44.21580  44.22922  44.28478  44.48586
          Condensed to atoms (all electrons):
               1          2          3          4          5          6
     1  C    5.101748   0.424262   0.418823  -0.007555   0.000604  -0.000376
     2  H    0.424262   0.510174  -0.022208  -0.001097   0.000226  -0.000003
     3  H    0.418823  -0.022208   0.531964   0.001648  -0.000020  -0.000006
     4  C   -0.007555  -0.001097   0.001648   5.400577   0.492358   0.299089
     5  H    0.000604   0.000226  -0.000020   0.492358   0.560484  -0.033078
     6  O   -0.000376  -0.000003  -0.000006   0.299089  -0.033078   8.045271
     7  H   -0.000060  -0.000004   0.000004  -0.035504  -0.013133   0.273132
     8  C    0.014560   0.012851  -0.009451  -0.043998  -0.067204  -0.058240
     9  H    0.011474   0.000124  -0.002364  -0.099452   0.001616   0.004310
    10  O    0.006806  -0.000371   0.000289  -0.042114   0.001403  -0.009657
    11  H   -0.001458  -0.000120   0.000472   0.015740  -0.000744  -0.000497
    12  C   -0.004577  -0.000082   0.000587  -0.011262  -0.101884  -0.039311
    13  H    0.000150   0.000012   0.000099  -0.082193   0.006895   0.009865
    14  C    0.165944  -0.050258  -0.042012   0.126427   0.014027   0.006635
    15  H   -0.068414  -0.007278  -0.003445  -0.007181   0.000028   0.000114
    16  O   -0.028074   0.000803   0.005018  -0.056206   0.002356   0.005107
    17  N    0.000034  -0.000051  -0.000035   0.010847  -0.011458  -0.003277
    18  C   -0.001093  -0.000001   0.000028  -0.011362  -0.002806   0.003276
    19  H    0.000003  -0.000030   0.000022  -0.006158   0.000537   0.000590
    20  C    0.000061  -0.000003  -0.000001   0.006723   0.007454  -0.001215
    21  H    0.000003   0.000000  -0.000000   0.000004   0.000141  -0.000018
    22  C   -0.000017   0.000001   0.000000   0.001141  -0.000779   0.000141
    23  H   -0.000000   0.000000  -0.000000   0.000018  -0.000004   0.000001
    24  H    0.000000  -0.000000   0.000000  -0.000116  -0.000079  -0.000029
    25  C   -0.000053  -0.000005   0.000001  -0.009057   0.000244  -0.000380
    26  C   -0.000366   0.000049  -0.000006   0.013192  -0.002172  -0.004630
    27  H   -0.000021   0.000001  -0.000000   0.000562  -0.000132  -0.000075
    28  C    0.000000  -0.000000  -0.000000  -0.000032   0.000012  -0.000007
    29  O   -0.000000   0.000000  -0.000000   0.000009  -0.000000  -0.000000
    30  N   -0.000000   0.000000   0.000000  -0.000000  -0.000000  -0.000000
    31  H   -0.000000   0.000000   0.000000  -0.000000   0.000000  -0.000000
    32  H    0.000000   0.000000  -0.000000   0.000000   0.000000   0.000000
    33  C    0.000001  -0.000000   0.000000   0.000183  -0.000374  -0.014660
    34  C    0.000001  -0.000000   0.000000   0.001568   0.000373   0.009172
    35  C    0.000000   0.000000  -0.000000  -0.000265   0.000211   0.001197
    36  C   -0.000000   0.000000   0.000000   0.000005   0.000000  -0.000000
    37  C   -0.000000   0.000000   0.000000   0.000039   0.000021   0.000018
    38  O   -0.000000   0.000000   0.000000   0.004010  -0.000105  -0.039694
    39  S   -0.000000  -0.000000  -0.000000  -0.000121   0.000022   0.000875
    40  H   -0.000000   0.000000  -0.000000   0.000118   0.000036   0.000190
    41  H   -0.000003   0.000000  -0.000000  -0.000280   0.000380   0.008485
    42  H    0.000000  -0.000000   0.000000  -0.000000   0.000000  -0.000000
    43  H    0.000000  -0.000000  -0.000000   0.000000  -0.000000   0.000000
    44  H    0.000000  -0.000000  -0.000000   0.000000  -0.000000   0.000000
    45  H   -0.000000   0.000000   0.000000  -0.000003   0.000005   0.000025
    46  H    0.000000  -0.000000  -0.000000  -0.000005  -0.000000   0.000020
    47  H    0.378407  -0.023431  -0.024802   0.000887  -0.000212   0.000027
    48  H    0.000000   0.000000  -0.000000  -0.000041   0.000002   0.000207
               7          8          9         10         11         12
     1  C   -0.000060   0.014560   0.011474   0.006806  -0.001458  -0.004577
     2  H   -0.000004   0.012851   0.000124  -0.000371  -0.000120  -0.000082
     3  H    0.000004  -0.009451  -0.002364   0.000289   0.000472   0.000587
     4  C   -0.035504  -0.043998  -0.099452  -0.042114   0.015740  -0.011262
     5  H   -0.013133  -0.067204   0.001616   0.001403  -0.000744  -0.101884
     6  O    0.273132  -0.058240   0.004310  -0.009657  -0.000497  -0.039311
     7  H    0.352811   0.010595  -0.000379  -0.000732   0.000189   0.008418
     8  C    0.010595   5.481006   0.517146   0.305044  -0.045820  -0.004493
     9  H   -0.000379   0.517146   0.572068  -0.053080  -0.007543   0.012518
    10  O   -0.000732   0.305044  -0.053080   7.980413   0.294320  -0.022221
    11  H    0.000189  -0.045820  -0.007543   0.294320   0.429681  -0.001885
    12  C    0.008418  -0.004493   0.012518  -0.022221  -0.001885   5.557299
    13  H   -0.001018   0.012784   0.002491   0.015336  -0.001090   0.428792
    14  C   -0.000685   0.007700  -0.128564  -0.063607   0.003015  -0.091652
    15  H    0.000069  -0.042666   0.010127   0.000189   0.003061   0.000108
    16  O    0.000152  -0.030365   0.005278   0.008370  -0.000017   0.246313
    17  N    0.004949   0.000824  -0.000610  -0.000083   0.000010   0.221650
    18  C   -0.001083  -0.002844  -0.000143  -0.000192   0.000010  -0.087834
    19  H    0.000101   0.000830  -0.000047   0.000004   0.000002   0.008748
    20  C   -0.001813  -0.001558   0.000057   0.000011  -0.000002   0.014279
    21  H   -0.000018  -0.000012   0.000001   0.000000  -0.000000   0.000336
    22  C    0.000600   0.000036  -0.000009  -0.000004   0.000000  -0.016787
    23  H   -0.000004   0.000001  -0.000000  -0.000000   0.000000  -0.000054
    24  H    0.000400   0.000019  -0.000000  -0.000000   0.000000   0.001208
    25  C    0.000665  -0.000385   0.000006  -0.000013  -0.000001  -0.001924
    26  C   -0.001868  -0.003973  -0.000115  -0.000468  -0.000039  -0.075914
    27  H    0.000078  -0.000139  -0.000010  -0.000139   0.000005  -0.002373
    28  C    0.000010   0.000006   0.000000   0.000000  -0.000000   0.000926
    29  O    0.000004   0.000000   0.000000  -0.000000  -0.000000   0.000539
    30  N    0.000000  -0.000000  -0.000000  -0.000000  -0.000000   0.000031
    31  H   -0.000000  -0.000000   0.000000  -0.000000  -0.000000  -0.000004
    32  H   -0.000000  -0.000000   0.000000   0.000000  -0.000000  -0.000011
    33  C    0.002915   0.000575   0.000016  -0.000619   0.000039   0.000073
    34  C   -0.012580   0.000046  -0.000015   0.000019   0.000000  -0.001935
    35  C    0.001130  -0.000163   0.000000   0.000001  -0.000000  -0.001007
    36  C   -0.000015  -0.000000  -0.000000  -0.000000  -0.000000  -0.000031
    37  C   -0.000621   0.000005   0.000000   0.000000  -0.000000  -0.000598
    38  O    0.060131  -0.000081  -0.000003  -0.000001  -0.000000   0.001571
    39  S   -0.000944  -0.000074  -0.000002  -0.000003  -0.000001   0.000275
    40  H   -0.000097  -0.000050  -0.000000   0.000011  -0.000001   0.000017
[...]
      4        6           0.001710604   -0.002804868    0.000664412
      5        1           0.004814002    0.004957664   -0.000307963
      6        8           0.001542201   -0.007349491   -0.013200883
      7        1          -0.007991191    0.005198094    0.003565342
      8        6          -0.011734052   -0.004587701   -0.006851637
      9        1           0.000474545    0.005492878   -0.002575589
     10        8           0.006382031   -0.001733383   -0.001573521
     11        1          -0.001463511    0.001662710    0.000550824
     12        6           0.011973166   -0.006587113    0.008211859
     13        1          -0.004871988    0.000030284   -0.003447517
     14        6           0.002567222    0.000703135    0.008408131
     15        1          -0.002959385    0.002267121    0.001332392
     16        8          -0.006899123    0.003786206    0.006333577
     17        7           0.008373813   -0.002615513    0.002235845
     18        6          -0.000862046   -0.003512357    0.001579686
     19        1           0.004607113    0.002010262    0.001048864
     20        6          -0.003751995   -0.010208886    0.004432074
     21        1           0.000757949   -0.003598507   -0.001293709
     22        6           0.003598912    0.014390185   -0.003572436
     23        1          -0.002779413    0.001112035   -0.002587437
     24        1          -0.002611955    0.000394822    0.003812147
     25        6          -0.016242310    0.002795891   -0.003823793
     26        6           0.002406469    0.006654586    0.004050458
     27        1           0.002280482   -0.001719595    0.002515249
     28        6          -0.015797329   -0.002094274   -0.001653852
     29        8           0.001401030   -0.001470953   -0.004661712
     30        7           0.026114508   -0.003147571   -0.003759630
     31        1          -0.003217431   -0.004914955    0.008064397
     32        1          -0.002911280    0.006692743    0.006101517
     33        6          -0.001803799   -0.011261000   -0.000920369
     34        6           0.004880063   -0.023357076    0.013128526
     35        6          -0.010898703    0.000076389   -0.019563300
     36        6          -0.003633094    0.001813394   -0.003458531
     37        6           0.007201695   -0.007362831    0.009161874
     38        8           0.002174015    0.006075567   -0.008130188
     39       16           0.014179581    0.014142502    0.006636276
     40        1           0.001738922    0.000416993    0.000982513
     41        1           0.001382658    0.001150599    0.004280731
     42        1          -0.004110104    0.001040912   -0.002793277
     43        1           0.000110948    0.002871129   -0.001450167
     44        1          -0.000633286    0.002930666   -0.000467675
     45        1           0.003416299   -0.003201490   -0.004545153
     46        1          -0.001341328    0.004503254   -0.000146222
     47        1           0.000648406   -0.001861704   -0.000418181
     48        1          -0.002557834    0.004027466   -0.004491123
 -------------------------------------------------------------------
 Cartesian Forces:  Max     0.026114508 RMS     0.006382963
 Leave Link  716 at Sun Apr  9 11:15:30 2023, MaxMem=  2684354560 cpu:               0.5 elap:               0.0
 (Enter /opt/gaussian/g16/l103.exe)

 GradGradGradGradGradGradGradGradGradGradGradGradGradGradGradGradGradGrad
 Berny optimization.
 Search for a local minimum.
 Step number   1 out of a maximum of    2
 All quantities printed in internal units (Hartrees-Bohrs-Radians)
 Second derivative matrix not updated -- first step.
 ITU=  0
     Eigenvalues ---    0.00044   0.00100   0.00118   0.00139   0.00170
     Eigenvalues ---    0.00289   0.00334   0.00393   0.00484   0.00539
     Eigenvalues ---    0.00647   0.00705   0.00817   0.00969   0.01010
     Eigenvalues ---    0.01088   0.01202   0.01362   0.01404   0.01572
     Eigenvalues ---    0.01735   0.02012   0.02388   0.02445   0.02615
     Eigenvalues ---    0.03027   0.03209   0.03689   0.04008   0.04208
     Eigenvalues ---    0.04450   0.04629   0.04820   0.05009   0.05149
     Eigenvalues ---    0.05245   0.05438   0.05480   0.05777   0.06035
     Eigenvalues ---    0.06124   0.06323   0.06691   0.07019   0.07126
     Eigenvalues ---    0.07164   0.07583   0.07750   0.08235   0.08427
     Eigenvalues ---    0.08591   0.08842   0.09373   0.09597   0.09902
     Eigenvalues ---    0.10975   0.11309   0.11522   0.12002   0.12113
     Eigenvalues ---    0.13039   0.13153   0.13621   0.13700   0.13987
     Eigenvalues ---    0.14142   0.14410   0.15379   0.15736   0.16403
     Eigenvalues ---    0.16701   0.17814   0.18370   0.18678   0.19401
     Eigenvalues ---    0.20711   0.21185   0.21844   0.22438   0.26578
     Eigenvalues ---    0.26687   0.27774   0.28518   0.29306   0.33270
     Eigenvalues ---    0.33541   0.34032   0.34982   0.36880   0.37612
     Eigenvalues ---    0.37612   0.37612   0.37612   0.37612   0.41719
     Eigenvalues ---    0.44203   0.48303   0.48647   0.54388   0.59744
     Eigenvalues ---    0.60692   0.60837   0.67230   0.72526   0.73524
     Eigenvalues ---    0.79504   0.82271   0.83811   0.87753   0.89582
     Eigenvalues ---    0.90403   0.91871   0.93049   0.93878   0.95251
     Eigenvalues ---    0.97596   0.98614   0.98919   1.01680   1.02966
     Eigenvalues ---    1.05831   1.07380   1.09080   1.09268   1.12299
     Eigenvalues ---    1.12691   1.17989   1.22631   1.28466   1.31620
     Eigenvalues ---    1.32454   1.34897   1.37373   1.57858   1.75093
     Eigenvalues ---    1.77716   1.92022   2.36965
 Quadratic step=4.394D+00 exceeds max=3.000D-01 adjusted using Lamda=-3.867D-02.
 Angle between NR and scaled steps=  63.61 degrees.
 Angle between quadratic step and forces=  55.09 degrees.
 Linear search not attempted -- first point.
 Variable       Old X    -DE/DX   Delta X   Delta X   Delta X     New X
                                 (Linear)    (Quad)   (Total)
    X1        6.56066  -0.00616   0.00000  -0.02225  -0.02225   6.53841
    Y1       -6.89101   0.01413   0.00000   0.02943   0.02943  -6.86158
    Z1       -1.32315  -0.00107   0.00000  -0.00530  -0.00530  -1.32846
    X2        6.72675  -0.00026   0.00000  -0.01800  -0.01800   6.70875
    Y2       -7.19869  -0.00372   0.00000  -0.01459  -0.01459  -7.21328
    Z2       -3.34652  -0.00121   0.00000  -0.00367  -0.00367  -3.35018
    X3        8.26088   0.00075   0.00000  -0.02740  -0.02740   8.23347
    Y3       -7.55985  -0.00421   0.00000  -0.01988  -0.01988  -7.57973
    Z3       -0.38771   0.00088   0.00000  -0.00965  -0.00965  -0.39737
    X4        3.05941   0.00171   0.00000  -0.00185  -0.00185   3.05756
    Y4       -2.34937  -0.00280   0.00000  -0.00018  -0.00018  -2.34955
    Z4        1.85738   0.00066   0.00000  -0.01409  -0.01409   1.84328
    X5        1.77129   0.00481   0.00000   0.02332   0.02332   1.79461
    Y5       -4.00251   0.00496   0.00000   0.00511   0.00511  -3.99740
    Z5        1.80272  -0.00031   0.00000  -0.02247  -0.02247   1.78025
    X6        2.55563   0.00154   0.00000  -0.03851  -0.03851   2.51712
    Y6       -0.76417  -0.00735   0.00000   0.00226   0.00226  -0.76191
    Z6        3.88028  -0.01320   0.00000  -0.04619  -0.04619   3.83409
    X7        0.80740  -0.00799   0.00000  -0.04496  -0.04496   0.76243
    Y7       -0.15567   0.00520   0.00000   0.02848   0.02848  -0.12719
    Z7        3.79647   0.00357   0.00000   0.00282   0.00282   3.79929
    X8        5.81650  -0.01173   0.00000  -0.01942  -0.01942   5.79708
    Y8       -3.33283  -0.00459   0.00000   0.00979   0.00979  -3.32304
    Z8        1.96412  -0.00685   0.00000  -0.01456  -0.01456   1.94955
    X9        5.96322   0.00047   0.00000  -0.00112  -0.00112   5.96210
    Y9       -4.99891   0.00549   0.00000   0.02784   0.02784  -4.97107
    Z9        3.20787  -0.00258   0.00000  -0.01547  -0.01547   3.19239
   X10        7.29888   0.00638   0.00000   0.01675   0.01675   7.31563
   Y10       -1.31473  -0.00173   0.00000  -0.00261  -0.00261  -1.31734
   Z10        2.82120  -0.00157   0.00000  -0.02958  -0.02958   2.79162
   X11        9.03083  -0.00146   0.00000   0.01133   0.01133   9.04216
   Y11       -1.86839   0.00166   0.00000  -0.00713  -0.00713  -1.87552
   Z11        2.91740   0.00055   0.00000  -0.01474  -0.01474   2.90266
   X12        3.11718   0.01197   0.00000   0.01391   0.01391   3.13108
   Y12       -1.11982  -0.00659   0.00000   0.00186   0.00186  -1.11796
   Z12       -0.81045   0.00821   0.00000   0.01866   0.01866  -0.79178
   X13        4.23419  -0.00487   0.00000  -0.01268  -0.01268   4.22151
   Y13        0.62063   0.00003   0.00000   0.01275   0.01275   0.63338
   Z13       -0.63630  -0.00345   0.00000  -0.02391  -0.02391  -0.66022
   X14        6.36078   0.00257   0.00000  -0.01202  -0.01202   6.34876
   Y14       -4.05974   0.00070   0.00000   0.01727   0.01727  -4.04247
   Z14       -0.84792   0.00841   0.00000   0.01377   0.01377  -0.83415
   X15        8.15529  -0.00296   0.00000  -0.02655  -0.02655   8.12874
   Y15       -3.18685   0.00227   0.00000   0.03637   0.03637  -3.15048
   Z15       -1.41903   0.00133   0.00000   0.01147   0.01147  -1.40756
   X16        4.36866  -0.00690   0.00000  -0.02720  -0.02720   4.34146
   Y16       -2.94888   0.00379   0.00000   0.00046   0.00046  -2.94842
   Z16       -2.33296   0.00633   0.00000   0.02624   0.02624  -2.30672
   X17        0.68839   0.00837   0.00000   0.01115   0.01115   0.69954
   Y17       -0.49586  -0.00262   0.00000   0.00386   0.00386  -0.49200
   Z17       -1.97028   0.00224   0.00000   0.02256   0.02256  -1.94772
   X18       -1.19135  -0.00086   0.00000   0.01194   0.01194  -1.17940
   Y18       -2.25535  -0.00351   0.00000  -0.00539  -0.00539  -2.26074
   Z18       -2.05010   0.00158   0.00000   0.01600   0.01600  -2.03410
   X19       -0.84752   0.00461   0.00000   0.06205   0.06205  -0.78547
   Y19       -4.07897   0.00201   0.00000   0.00495   0.00495  -4.07402
   Z19       -1.20705   0.00105   0.00000   0.01223   0.01223  -1.19482
   X20       -3.44286  -0.00375   0.00000  -0.00269  -0.00269  -3.44555
   Y20       -1.70246  -0.01021   0.00000  -0.02309  -0.02309  -1.72556
   Z20       -3.13385   0.00443   0.00000   0.01248   0.01248  -3.12138
   X21       -4.96957   0.00076   0.00000   0.02250   0.02250  -4.94707
   Y21       -3.04601  -0.00360   0.00000  -0.05727  -0.05727  -3.10327
   Z21       -3.02421  -0.00129   0.00000  -0.01923  -0.01923  -3.04345
   X22       -3.85085   0.00360   0.00000  -0.02014  -0.02014  -3.87099
   Y22        0.64998   0.01439   0.00000   0.00573   0.00573   0.65571
   Z22       -4.20853  -0.00357   0.00000   0.01356   0.01356  -4.19497
   X23       -5.64625  -0.00278   0.00000  -0.01299  -0.01299  -5.65925
   Y23        1.10068   0.00111   0.00000  -0.00052  -0.00052   1.10017
   Z23       -5.04718  -0.00259   0.00000  -0.02216  -0.02216  -5.06934
   X24       -5.28749  -0.00261   0.00000  -0.01773  -0.01773  -5.30522
   Y24        2.39656   0.00039   0.00000  -0.01679  -0.01679   2.37978
   Z24       -1.12881   0.00381   0.00000   0.01116   0.01116  -1.11765
   X25       -1.84407  -0.01624   0.00000  -0.04115  -0.04115  -1.88522
   Y25        2.38650   0.00280   0.00000   0.01442   0.01442   2.40092
   Z25       -4.27043  -0.00382   0.00000   0.04242   0.04242  -4.22801
   X26        0.35565   0.00241   0.00000  -0.01850  -0.01850   0.33715
   Y26        1.78442   0.00665   0.00000   0.02007   0.02007   1.80449
   Z26       -3.06373   0.00405   0.00000   0.04466   0.04466  -3.01907
   X27        1.87302   0.00228   0.00000   0.00552   0.00552   1.87853
   Y27        3.14943  -0.00172   0.00000  -0.00336  -0.00336   3.14607
   Z27       -2.98123   0.00252   0.00000   0.04219   0.04219  -2.93904
   X28       -2.17946  -0.01580   0.00000  -0.01951  -0.01951  -2.19896
   Y28        4.98623  -0.00209   0.00000  -0.00772  -0.00772   4.97851
   Z28       -5.41408  -0.00165   0.00000   0.02659   0.02659  -5.38749
   X29       -0.93401   0.00140   0.00000   0.02599   0.02599  -0.90802
   Y29        6.76918  -0.00147   0.00000  -0.01673  -0.01673   6.75245
   Z29       -4.76347  -0.00466   0.00000  -0.04208  -0.04208  -4.80555
   X30       -4.22102   0.02611   0.00000   0.07451   0.07451  -4.14651
   Y30        5.15662  -0.00315   0.00000  -0.01688  -0.01688   5.13974
   Z30       -7.13490  -0.00376   0.00000  -0.01827  -0.01827  -7.15317
   X31       -4.06665  -0.00322   0.00000   0.01820   0.01820  -4.04845
   Y31        6.74703  -0.00491   0.00000  -0.00272  -0.00272   6.74431
   Z31       -8.22350   0.00806   0.00000   0.02749   0.02749  -8.19601
   X32       -4.38753  -0.00291   0.00000   0.00220   0.00220  -4.38532
   Y32        3.58566   0.00669   0.00000  -0.00467  -0.00467   3.58099
   Z32       -8.24701   0.00610   0.00000   0.00830   0.00830  -8.23871
   X33        1.25946  -0.00180   0.00000  -0.01097  -0.01097   1.24849
   Y33        4.03259  -0.01126   0.00000  -0.02512  -0.02512   4.00747
   Z33        7.22475  -0.00092   0.00000   0.02034   0.02034   7.24508
   X34       -2.04425   0.00488   0.00000   0.03340   0.03340  -2.01084
   Y34        3.80561  -0.02336   0.00000  -0.01515  -0.01515   3.79046
   Z34        3.18855   0.01313   0.00000  -0.01409  -0.01409   3.17446
   X35       -3.45392  -0.01090   0.00000   0.00100   0.00100  -3.45292
   Y35        4.99604   0.00008   0.00000  -0.01158  -0.01158   4.98446
   Z35        1.38136  -0.01956   0.00000  -0.03497  -0.03497   1.34639
   X36       -7.39316  -0.00363   0.00000  -0.02102  -0.02102  -7.41418
   Y36        5.85884   0.00181   0.00000   0.00550   0.00550   5.86434
   Z36       -1.09820  -0.00346   0.00000  -0.00818  -0.00818  -1.10639
   X37       -5.77499   0.00720   0.00000  -0.00078  -0.00078  -5.77577
   Y37        3.92369  -0.00736   0.00000  -0.01934  -0.01934   3.90435
   Z37        0.25372   0.00916   0.00000   0.00120   0.00120   0.25492
   X38       -2.17317   0.00217   0.00000   0.05600   0.05600  -2.11718
   Y38        1.53499   0.00608   0.00000  -0.02434  -0.02434   1.51064
   Z38        3.93595  -0.00813   0.00000  -0.07278  -0.07278   3.86317
   X39        0.12604   0.01418   0.00000   0.03223   0.03223   0.15827
   Y39        5.91155   0.01414   0.00000   0.02572   0.02572   5.93727
   Z39        4.63986   0.00664   0.00000   0.03612   0.03612   4.67598
   X40       -0.36595   0.00174   0.00000  -0.00404  -0.00404  -0.36999
   Y40        3.28763   0.00042   0.00000  -0.01372  -0.01372   3.27391
   Z40        8.24701   0.00098   0.00000   0.03065   0.03065   8.27766
   X41        2.34500   0.00138   0.00000   0.02939   0.02939   2.37439
   Y41        2.45788   0.00115   0.00000  -0.01015  -0.01015   2.44772
   Z41        6.47038   0.00428   0.00000   0.06408   0.06408   6.53446
   X42       -8.05396  -0.00411   0.00000  -0.05958  -0.05958  -8.11355
   Y42        5.10894   0.00104   0.00000   0.02646   0.02646   5.13540
   Z42       -2.89212  -0.00279   0.00000  -0.00989  -0.00989  -2.90201
   X43       -6.31521   0.00011   0.00000  -0.01249  -0.01249  -6.32770
   Y43        7.55985   0.00287   0.00000   0.00771   0.00771   7.56757
   Z43       -1.49926  -0.00145   0.00000  -0.01918  -0.01918  -1.51845
   X44       -9.03083  -0.00063   0.00000  -0.00369  -0.00369  -9.03452
   Y44        6.36608   0.00293   0.00000   0.04333   0.04333   6.40941
   Z44        0.03633  -0.00047   0.00000   0.00265   0.00265   0.03898
   X45       -6.87825   0.00342   0.00000   0.02743   0.02743  -6.85082
   Y45        2.97126  -0.00320   0.00000  -0.04933  -0.04933   2.92193
   Z45        1.73555  -0.00455   0.00000  -0.01205  -0.01205   1.72349
   X46       -2.88436  -0.00134   0.00000  -0.04069  -0.04069  -2.92506
   Y46        6.87636   0.00450   0.00000   0.02201   0.02201   6.89837
   Z46        0.84176  -0.00015   0.00000  -0.00066  -0.00066   0.84109
   X47        4.90227   0.00065   0.00000  -0.00914  -0.00914   4.89312
   Y47       -7.86988  -0.00186   0.00000   0.00366   0.00366  -7.86622
   Z47       -0.59217  -0.00042   0.00000  -0.00943  -0.00943  -0.60159
   X48        2.44966  -0.00256   0.00000  -0.04123  -0.04123   2.40843
   Y48        5.13188   0.00403   0.00000   0.03750   0.03750   5.16938
   Z48        8.49666  -0.00449   0.00000  -0.01155  -0.01155   8.48510
         Item               Value     Threshold  Converged?
 Maximum Force            0.026115     0.000450     NO 
 RMS     Force            0.006383     0.000300     NO 
 Maximum Displacement     0.074506     0.001800     NO 
 RMS     Displacement     0.025034     0.001200     NO 
 Predicted change in Energy=-8.329501D-03
 GradGradGradGradGradGradGradGradGradGradGradGradGradGradGradGradGradGrad

 Leave Link  103 at Sun Apr  9 11:15:30 2023, MaxMem=  2684354560 cpu:               1.3 elap:               0.1
 (Enter /opt/gaussian/g16/l9999.exe)

 Test job not archived.
 1\1\GINC-JULIO-SYS\Force\RM062X\def2TZVP\C16H24N2O5S1\JVELAZQUEZ\09-Ap
 r-2023\0\\#P M062X/Def2TZVP scf=(direct,conver=8) EmpiricalDispersion=
 GD3 NoSymm Force pop=(NBORead) Charge Prop=(Field,Read)\\Gaussian run 
 using SANDER external interface, route from template gau_job.tpl\\0,1\
 C,3.4717506169,-3.6465680721,-0.7001826372\H,3.55964516,-3.8093808982,
 -1.7709002823\H,4.3714673911,-4.0005025893,-0.2051697649\C,1.618971684
 8,-1.2432318591,0.9828826112\H,0.9373284167,-2.1180347521,0.9539571825
 \O,1.3523823785,-0.4043821299,2.0533575468\H,0.4272564953,-0.082374855
 6,2.009003381\C,3.0779605768,-1.7636582595,1.0393652873\H,3.1555982716
 ,-2.6453103434,1.6975302666\O,3.862401153,-0.6957235278,1.4929171896\H
 ,4.7789109293,-0.9887073245,1.5438241664\C,1.6495381512,-0.5925848843,
 -0.4288713239\H,2.2406388722,0.3284226955,-0.3367177407\C,3.3659794476
 ,-2.1483192687,-0.4487023576\H,4.3155918016,-1.6864063282,-0.750918958
 2\O,2.3117953142,-1.5604777003,-1.2345507624\N,0.3642784822,-0.2623960
 789,-1.0426269661\C,-0.6304333684,-1.1934786679,-1.0848656302\H,-0.448
 4877598,-2.1584979786,-0.6387444745\C,-1.8218843423,-0.9009043562,-1.6
 583633459\H,-2.629784092,-1.6118769963,-1.600344408\C,-2.0377796066,0.
 3439547109,-2.227059902\H,-2.9878693557,0.5824561418,-2.6708516996\H,-
 2.7980212691,1.2682074021,-0.5973394303\C,-0.9758387475,1.2628821794,-
 2.2598116177\C,0.1882041382,0.9442762099,-1.6212551416\H,0.9911584571,
 1.6666064941,-1.5775965174\C,-1.1533180283,2.6385992129,-2.8650088272\
 O,-0.494255083,3.5820956514,-2.5207187892\N,-2.2336670665,2.7287657933
 ,-3.7756258977\H,-2.1519790064,3.5703731947,-4.3516880174\H,-2.3217789
 057,1.8974499682,-4.3641306366\C,0.666476709,2.1339521364,3.8231715184
 \C,-1.0817688276,2.0138419068,1.6873080181\C,-1.8277345792,2.643790862
 ,0.730982212\C,-3.9122919747,3.1003637311,-0.5811440157\C,-3.055992314
 ,2.0763285794,0.1342635072\O,-1.1499938389,0.8122800682,2.0828154697\S
 ,0.0666953597,3.1282564461,2.4553086963\H,-0.1936521146,1.7397385339,4
 .3641306366\H,1.2409183542,1.3006514713,3.4239784623\H,-4.2619742687,2
 .7035348304,-1.5304430011\H,-3.3418652568,4.0005025893,-0.7933764374\H
 ,-4.7789109293,3.3687848055,0.0192240542\H,-3.6398143766,1.5723224209,
 0.9184117575\H,-1.5263401535,3.6388146729,0.4454383959\H,2.5941673321,
 -4.1645619378,-0.3133623516\H,1.2963040349,2.715673777,4.4962372451\\V
 ersion=ES64L-G16RevA.03\HF=-1507.8496358\RMSD=5.394e-09\RMSF=6.383e-03
 \Dipole=0.8104302,-3.0180059,-3.1958925\Quadrupole=10.2733289,-11.0696
 131,0.7962842,-5.0748876,12.300263,-9.0496604\PG=C01 [X(C16H24N2O5S1)]
 \\@


 You can't act like a skunk without someone's getting wind of it.
 -- Lorene Workman
 Job cpu time:       0 days  7 hours 45 minutes  4.1 seconds.
 Elapsed time:       0 days  0 hours 29 minutes  4.7 seconds.
 File lengths (MBytes):  RWF=    435 Int=      0 D2E=      0 Chk=     48 Scr=      1
 Normal termination of Gaussian 16 at Sun Apr  9 11:15:30 2023.
