 Entering Gaussian System, Link 0=g16
 Initial command:
 /opt/gaussian/g16/l1.exe "/opt/gaussian/scratch16/Gau-3407930.inp" -scrdir="/opt/gaussian/scratch16/"
 Entering Link 1 = /opt/gaussian/g16/l1.exe PID=   3407932.
  
 Copyright (c) 1988,1990,1992,1993,1995,1998,2003,2009,2016,
            Gaussian, Inc.  All Rights Reserved.
  
 This is part of the Gaussian(R) 16 program.  It is based on
 the Gaussian(R) 09 system (copyright 2009, Gaussian, Inc.),
 the Gaussian(R) 03 system (copyright 2003, Gaussian, Inc.),
 the Gaussian(R) 98 system (copyright 1998, Gaussian, Inc.),
 the Gaussian(R) 94 system (copyright 1995, Gaussian, Inc.),
 the Gaussian 92(TM) system (copyright 1992, Gaussian, Inc.),
 the Gaussian 90(TM) system (copyright 1990, Gaussian, Inc.),
 the Gaussian 88(TM) system (copyright 1988, Gaussian, Inc.),
 the Gaussian 86(TM) system (copyright 1986, Carnegie Mellon
 University), and the Gaussian 82(TM) system (copyright 1983,
 Carnegie Mellon University). Gaussian is a federally registered
 trademark of Gaussian, Inc.
  
 This software contains proprietary and confidential information,
 including trade secrets, belonging to Gaussian, Inc.
  
 This software is provided under written license and may be
 used, copied, transmitted, or stored only in accord with that
 written license.
  
 The following legend is applicable only to US Government
 contracts under FAR:
  
                    RESTRICTED RIGHTS LEGEND
  
 Use, reproduction and disclosure by the US Government is
 subject to restrictions as set forth in subparagraphs (a)
 and (c) of the Commercial Computer Software - Restricted
 Rights clause in FAR 52.227-19.
  
 Gaussian, Inc.
 340 Quinnipiac St., Bldg. 40, Wallingford CT 06492
  
  
 ---------------------------------------------------------------
 Warning -- This program may not be used in any manner that
 competes with the business of Gaussian, Inc. or will provide
 assistance to any competitor of Gaussian, Inc.  The licensee
 of this program is prohibited from giving any competitor of
 Gaussian, Inc. access to this program.  By using this program,
 the user acknowledges that Gaussian, Inc. is engaged in the
 business of creating and licensing software in the field of
 computational chemistry and represents and warrants to the
 licensee that it is not a competitor of Gaussian, Inc. and that
 it will not use this program in any manner prohibited above.
 ---------------------------------------------------------------
  

 Cite this work as:
 Gaussian 16, Revision A.03,
 M. J. Frisch, G. W. Trucks, H. B. Schlegel, G. E. Scuseria, 
 M. A. Robb, J. R. Cheeseman, G. Scalmani, V. Barone, 
 G. A. Petersson, H. Nakatsuji, X. Li, M. Caricato, A. V. Marenich, 
 J. Bloino, B. G. Janesko, R. Gomperts, B. Mennucci, H. P. Hratchian, 
 J. V. Ortiz, A. F. Izmaylov, J. L. Sonnenberg, D. Williams-Young, 
 F. Ding, F. Lipparini, F. Egidi, J. Goings, B. Peng, A. Petrone, 
 T. Henderson, D. Ranasinghe, V. G. Zakrzewski, J. Gao, N. Rega, 
 G. Zheng, W. Liang, M. Hada, M. Ehara, K. Toyota, R. Fukuda, 
 J. Hasegawa, M. Ishida, T. Nakajima, Y. Honda, O. Kitao, H. Nakai, 
 T. Vreven, K. Throssell, J. A. Montgomery, Jr., J. E. Peralta, 
 F. Ogliaro, M. J. Bearpark, J. J. Heyd, E. N. Brothers, K. N. Kudin, 
 V. N. Staroverov, T. A. Keith, R. Kobayashi, J. Normand, 
 K. Raghavachari, A. P. Rendell, J. C. Burant, S. S. Iyengar, 
 J. Tomasi, M. Cossi, J. M. Millam, M. Klene, C. Adamo, R. Cammi, 
 J. W. Ochterski, R. L. Martin, K. Morokuma, O. Farkas, 
 J. B. Foresman, and D. J. Fox, Gaussian, Inc., Wallingford CT, 2016.
 
 ******************************************
 Gaussian 16:  ES64L-G16RevA.03 25-Dec-2016
                 9-Apr-2023 
 ******************************************
 %chk=29.chk
 %NProcShared=16
 Will use up to   16 processors via shared memory.
 %mem=20GB
 ----------------------------------------------------------------------
 #P M062X/Def2TZVP scf=(direct,conver=8) EmpiricalDispersion=GD3 NoSymm
  Force pop=(NBORead) Charge Prop=(Field,Read)
 ----------------------------------------------------------------------
 1/10=7,18=10,28=-2,30=1,38=1,125=101/1,3;
 2/12=2,15=1,17=6,18=5,29=2,40=1/2;
 3/5=44,7=101,11=2,25=1,30=1,71=1,74=-55,124=31/1,2,3;
 4//1;
 5/5=2,6=8,38=5/2;
 6/7=2,8=2,9=2,10=2,14=2,15=1,28=1,40=2/1,2,7;
 7/7=1,16=-2,29=1,30=1/1,2,3,16;
 1/10=7,18=10,28=-2,30=1/3;
 99/12=1/99;
 Leave Link    1 at Sun Apr  9 10:46:35 2023, MaxMem=  2684354560 cpu:               1.0 elap:               0.1
 (Enter /opt/gaussian/g16/l101.exe)
 ----------------------------------------------------------------------
 Gaussian run using SANDER external interface, route from template gau_
 job.tpl
 ----------------------------------------------------------------------
 Symbolic Z-matrix:
 Charge =  0 Multiplicity = 1
 C                     3.46376  -3.64426  -0.68327 
 H                     3.55026  -3.80559  -1.75422 
 H                     4.36369  -4.00018  -0.18998 
 C                     1.61302  -1.23787   0.99953 
 H                     0.928    -2.11089   0.97418 
 O                     1.35203  -0.39634   2.06844 
 H                     0.42886  -0.06608   2.02283 
 C                     3.07125  -1.76082   1.05673 
 H                     3.14568  -2.64186   1.71629 
 O                     3.8559   -0.69357   1.51072 
 H                     4.77176  -0.98822   1.56366 
 C                     1.6421   -0.5896   -0.41336 
 H                     2.22876   0.334    -0.32223 
 C                     3.36078  -2.14606  -0.43021 
 H                     4.31159  -1.68622  -0.7306 
 O                     2.30716  -1.55482  -1.21812 
 N                     0.35142  -0.26323  -1.02416 
 C                    -0.62872  -1.20327  -1.08009 
 H                    -0.44612  -2.16602  -0.63031 
 C                    -1.81875  -0.92332  -1.67098 
 H                    -2.60038  -1.66582  -1.67182 
 C                    -2.04039   0.31724  -2.24092 
 H                    -2.97097   0.52781  -2.73909 
 H                    -2.85366   1.2561   -0.52552 
 C                    -0.99901   1.25343  -2.24069 
 C                     0.16975   0.94021  -1.59907 
 H                     0.96383   1.67212  -1.5499 
 C                    -1.16721   2.62853  -2.85372 
 O                    -0.5079    3.56628  -2.50086 
 N                    -2.24146   2.72943  -3.77103 
 H                    -2.16543   3.58791  -4.32403 
 H                    -2.33021   1.91565  -4.38394 
 C                     0.66834   2.12744   3.8455 
 C                    -1.08693   2.01264   1.7044 
 C                    -1.84895   2.64644   0.76975 
 C                    -3.92279   3.11843  -0.54558 
 C                    -3.0864    2.08969   0.17902 
 O                    -1.13593   0.80177   2.07888 
 S                     0.07795   3.11853   2.46813 
 H                    -0.19747   1.74089   4.38394 
 H                     1.24332   1.28905   3.45706 
 H                    -4.29604   2.72038  -1.48152 
 H                    -3.3359    4.00018  -0.77198 
 H                    -4.77176   3.42133   0.06079 
 H                    -3.68116   1.6237    0.97724 
 H                    -1.58582   3.66085   0.53148 
 H                     2.58611  -4.16197  -0.29621 
 H                     1.29583   2.71091   4.51924 
 
 ITRead=  0  0  0  0  0  0  0  0  0  0  0  0  0  0  0  0  0  0  0  0
 ITRead=  0  0  0  0  0  0  0  0  0  0  0  0  0  0  0  0  0  0  0  0
 ITRead=  0  0  0  0  0  0  0  0
 MicOpt= -1 -1 -1 -1 -1 -1 -1 -1 -1 -1 -1 -1 -1 -1 -1 -1 -1 -1 -1 -1
 MicOpt= -1 -1 -1 -1 -1 -1 -1 -1 -1 -1 -1 -1 -1 -1 -1 -1 -1 -1 -1 -1
 MicOpt= -1 -1 -1 -1 -1 -1 -1 -1
 NAtoms=     48 NQM=       48 NQMF=       0 NMMI=      0 NMMIF=      0
                NMic=       0 NMicF=      0.
                    Isotopes and Nuclear Properties:
 (Nuclear quadrupole moments (NQMom) in fm**2, nuclear magnetic moments (NMagM)
  in nuclear magnetons)

  Atom         1           2           3           4           5           6           7           8           9          10
 IAtWgt=          12           1           1          12           1          16           1          12           1          16
 AtmWgt=  12.0000000   1.0078250   1.0078250  12.0000000   1.0078250  15.9949146   1.0078250  12.0000000   1.0078250  15.9949146
 NucSpn=           0           1           1           0           1           0           1           0           1           0
 AtZEff=  -0.0000000  -0.0000000  -0.0000000  -0.0000000  -0.0000000  -0.0000000  -0.0000000  -0.0000000  -0.0000000  -0.0000000
 NQMom=    0.0000000   0.0000000   0.0000000   0.0000000   0.0000000   0.0000000   0.0000000   0.0000000   0.0000000   0.0000000
 NMagM=    0.0000000   2.7928460   2.7928460   0.0000000   2.7928460   0.0000000   2.7928460   0.0000000   2.7928460   0.0000000
 AtZNuc=   6.0000000   1.0000000   1.0000000   6.0000000   1.0000000   8.0000000   1.0000000   6.0000000   1.0000000   8.0000000

  Atom        11          12          13          14          15          16          17          18          19          20
 IAtWgt=           1          12           1          12           1          16          14          12           1          12
 AtmWgt=   1.0078250  12.0000000   1.0078250  12.0000000   1.0078250  15.9949146  14.0030740  12.0000000   1.0078250  12.0000000
 NucSpn=           1           0           1           0           1           0           2           0           1           0
 AtZEff=  -0.0000000  -0.0000000  -0.0000000  -0.0000000  -0.0000000  -0.0000000  -0.0000000  -0.0000000  -0.0000000  -0.0000000
 NQMom=    0.0000000   0.0000000   0.0000000   0.0000000   0.0000000   0.0000000   2.0440000   0.0000000   0.0000000   0.0000000
 NMagM=    2.7928460   0.0000000   2.7928460   0.0000000   2.7928460   0.0000000   0.4037610   0.0000000   2.7928460   0.0000000
 AtZNuc=   1.0000000   6.0000000   1.0000000   6.0000000   1.0000000   8.0000000   7.0000000   6.0000000   1.0000000   6.0000000

  Atom        21          22          23          24          25          26          27          28          29          30
 IAtWgt=           1          12           1           1          12          12           1          12          16          14
 AtmWgt=   1.0078250  12.0000000   1.0078250   1.0078250  12.0000000  12.0000000   1.0078250  12.0000000  15.9949146  14.0030740
 NucSpn=           1           0           1           1           0           0           1           0           0           2
 AtZEff=  -0.0000000  -0.0000000  -0.0000000  -0.0000000  -0.0000000  -0.0000000  -0.0000000  -0.0000000  -0.0000000  -0.0000000
 NQMom=    0.0000000   0.0000000   0.0000000   0.0000000   0.0000000   0.0000000   0.0000000   0.0000000   0.0000000   2.0440000
 NMagM=    2.7928460   0.0000000   2.7928460   2.7928460   0.0000000   0.0000000   2.7928460   0.0000000   0.0000000   0.4037610
 AtZNuc=   1.0000000   6.0000000   1.0000000   1.0000000   6.0000000   6.0000000   1.0000000   6.0000000   8.0000000   7.0000000

  Atom        31          32          33          34          35          36          37          38          39          40
 IAtWgt=           1           1          12          12          12          12          12          16          32           1
 AtmWgt=   1.0078250   1.0078250  12.0000000  12.0000000  12.0000000  12.0000000  12.0000000  15.9949146  31.9720718   1.0078250
 NucSpn=           1           1           0           0           0           0           0           0           0           1
 AtZEff=  -0.0000000  -0.0000000  -0.0000000  -0.0000000  -0.0000000  -0.0000000  -0.0000000  -0.0000000  -0.0000000  -0.0000000
 NQMom=    0.0000000   0.0000000   0.0000000   0.0000000   0.0000000   0.0000000   0.0000000   0.0000000   0.0000000   0.0000000
 NMagM=    2.7928460   2.7928460   0.0000000   0.0000000   0.0000000   0.0000000   0.0000000   0.0000000   0.0000000   2.7928460
 AtZNuc=   1.0000000   1.0000000   6.0000000   6.0000000   6.0000000   6.0000000   6.0000000   8.0000000  16.0000000   1.0000000

  Atom        41          42          43          44          45          46          47          48
 IAtWgt=           1           1           1           1           1           1           1           1
 AtmWgt=   1.0078250   1.0078250   1.0078250   1.0078250   1.0078250   1.0078250   1.0078250   1.0078250
 NucSpn=           1           1           1           1           1           1           1           1
 AtZEff=  -0.0000000  -0.0000000  -0.0000000  -0.0000000  -0.0000000  -0.0000000  -0.0000000  -0.0000000
 NQMom=    0.0000000   0.0000000   0.0000000   0.0000000   0.0000000   0.0000000   0.0000000   0.0000000
 NMagM=    2.7928460   2.7928460   2.7928460   2.7928460   2.7928460   2.7928460   2.7928460   2.7928460
 AtZNuc=   1.0000000   1.0000000   1.0000000   1.0000000   1.0000000   1.0000000   1.0000000   1.0000000
 Background charge distribution read from input stream:
 Leave Link  101 at Sun Apr  9 10:46:35 2023, MaxMem=  2684354560 cpu:               4.0 elap:               0.3
 (Enter /opt/gaussian/g16/l103.exe)

 GradGradGradGradGradGradGradGradGradGradGradGradGradGradGradGradGradGrad
 Berny optimization.
 Initialization pass.
 Trust Radius=3.00D-01 FncErr=1.00D-07 GrdErr=1.00D-07 EigMax=2.50D+02 EigMin=1.00D-04
 Number of steps in this run=      2 maximum allowed number of steps=      2.
 GradGradGradGradGradGradGradGradGradGradGradGradGradGradGradGradGradGrad

 Leave Link  103 at Sun Apr  9 10:46:35 2023, MaxMem=  2684354560 cpu:               0.4 elap:               0.0
 (Enter /opt/gaussian/g16/l202.exe)
 ---------------------------------------------------------------------------------------------------
                            Z-MATRIX (ANGSTROMS AND DEGREES)
   CD    Cent   Atom    N1       Length/X        N2       Alpha/Y        N3        Beta/Z          J
 ---------------------------------------------------------------------------------------------------
      1      1  C        0   3.463764         -3.644262         -0.683268
      2      2  H        0   3.550265         -3.805585         -1.754225
      3      3  H        0   4.363686         -4.000179         -0.189979
      4      4  C        0   1.613020         -1.237874          0.999525
      5      5  H        0   0.928003         -2.110885          0.974175
      6      6  O        0   1.352032         -0.396342          2.068444
      7      7  H        0   0.428857         -0.066079          2.022832
      8      8  C        0   3.071250         -1.760825          1.056728
      9      9  H        0   3.145681         -2.641857          1.716291
     10     10  O        0   3.855896         -0.693570          1.510719
     11     11  H        0   4.771762         -0.988219          1.563660
     12     12  C        0   1.642099         -0.589602         -0.413356
     13     13  H        0   2.228755          0.334004         -0.322233
     14     14  C        0   3.360779         -2.146064         -0.430209
     15     15  H        0   4.311589         -1.686224         -0.730599
     16     16  O        0   2.307164         -1.554824         -1.218124
     17     17  N        0   0.351419         -0.263234         -1.024161
     18     18  C        0  -0.628719         -1.203273         -1.080089
     19     19  H        0  -0.446116         -2.166022         -0.630309
     20     20  C        0  -1.818754         -0.923324         -1.670977
     21     21  H        0  -2.600380         -1.665819         -1.671816
     22     22  C        0  -2.040395          0.317242         -2.240923
     23     23  H        0  -2.970970          0.527808         -2.739095
     24     24  H        0  -2.853664          1.256099         -0.525521
     25     25  C        0  -0.999009          1.253425         -2.240691
     26     26  C        0   0.169752          0.940209         -1.599070
     27     27  H        0   0.963834          1.672120         -1.549904
     28     28  C        0  -1.167214          2.628527         -2.853718
     29     29  O        0  -0.507901          3.566276         -2.500861
     30     30  N        0  -2.241461          2.729431         -3.771027
     31     31  H        0  -2.165435          3.587913         -4.324026
     32     32  H        0  -2.330214          1.915649         -4.383941
     33     33  C        0   0.668345          2.127444          3.845499
     34     34  C        0  -1.086932          2.012637          1.704400
     35     35  C        0  -1.848954          2.646443          0.769747
     36     36  C        0  -3.922786          3.118429         -0.545582
     37     37  C        0  -3.086404          2.089691          0.179023
     38     38  O        0  -1.135930          0.801771          2.078882
     39     39  S        0   0.077946          3.118530          2.468135
     40     40  H        0  -0.197474          1.740891          4.383941
     41     41  H        0   1.243317          1.289051          3.457064
     42     42  H        0  -4.296039          2.720383         -1.481520
     43     43  H        0  -3.335897          4.000179         -0.771984
     44     44  H        0  -4.771762          3.421330          0.060792
     45     45  H        0  -3.681157          1.623699          0.977239
     46     46  H        0  -1.585815          3.660852          0.531484
     47     47  H        0   2.586115         -4.161969         -0.296212
     48     48  H        0   1.295831          2.710911          4.519240
 ---------------------------------------------------------------------------------------------------
                         Z-Matrix orientation:                         
 ---------------------------------------------------------------------
 Center     Atomic      Atomic             Coordinates (Angstroms)
 Number     Number       Type             X           Y           Z
 ---------------------------------------------------------------------
      1          6           0        3.463764   -3.644262   -0.683268
      2          1           0        3.550265   -3.805585   -1.754225
      3          1           0        4.363686   -4.000179   -0.189979
      4          6           0        1.613020   -1.237874    0.999525
      5          1           0        0.928003   -2.110885    0.974175
      6          8           0        1.352032   -0.396342    2.068444
      7          1           0        0.428857   -0.066079    2.022832
      8          6           0        3.071250   -1.760825    1.056728
      9          1           0        3.145681   -2.641857    1.716291
     10          8           0        3.855896   -0.693570    1.510719
     11          1           0        4.771762   -0.988219    1.563660
     12          6           0        1.642099   -0.589602   -0.413356
     13          1           0        2.228755    0.334004   -0.322233
     14          6           0        3.360779   -2.146064   -0.430209
     15          1           0        4.311589   -1.686224   -0.730599
     16          8           0        2.307164   -1.554824   -1.218124
     17          7           0        0.351419   -0.263234   -1.024161
     18          6           0       -0.628719   -1.203273   -1.080089
     19          1           0       -0.446116   -2.166022   -0.630309
     20          6           0       -1.818754   -0.923324   -1.670977
     21          1           0       -2.600380   -1.665819   -1.671816
     22          6           0       -2.040395    0.317242   -2.240923
     23          1           0       -2.970970    0.527808   -2.739095
     24          1           0       -2.853664    1.256099   -0.525521
     25          6           0       -0.999009    1.253425   -2.240691
     26          6           0        0.169752    0.940209   -1.599070
     27          1           0        0.963834    1.672120   -1.549904
     28          6           0       -1.167214    2.628527   -2.853718
     29          8           0       -0.507901    3.566276   -2.500861
     30          7           0       -2.241461    2.729431   -3.771027
     31          1           0       -2.165435    3.587913   -4.324026
     32          1           0       -2.330214    1.915649   -4.383941
     33          6           0        0.668345    2.127444    3.845499
     34          6           0       -1.086932    2.012637    1.704400
     35          6           0       -1.848954    2.646443    0.769747
     36          6           0       -3.922786    3.118429   -0.545582
     37          6           0       -3.086404    2.089691    0.179023
     38          8           0       -1.135930    0.801771    2.078882
     39         16           0        0.077946    3.118530    2.468135
     40          1           0       -0.197474    1.740891    4.383941
     41          1           0        1.243317    1.289051    3.457064
     42          1           0       -4.296039    2.720383   -1.481520
     43          1           0       -3.335897    4.000179   -0.771984
     44          1           0       -4.771762    3.421330    0.060792
     45          1           0       -3.681157    1.623699    0.977239
     46          1           0       -1.585815    3.660852    0.531484
     47          1           0        2.586115   -4.161969   -0.296212
     48          1           0        1.295831    2.710911    4.519240
 ---------------------------------------------------------------------
                    Distance matrix (angstroms):
                    1          2          3          4          5
     1  C    0.000000
     2  H    1.086488   0.000000
     3  H    1.086218   1.773805   0.000000
     4  C    3.470987   4.234288   4.075710   0.000000
     5  H    3.395356   4.146376   4.090061   1.109973   0.000000
     6  O    4.751876   5.573865   5.211351   1.385236   2.077712
     7  H    5.416367   6.163866   5.988034   1.955122   2.351608
     8  C    2.594030   3.508840   2.870432   1.550221   2.173215
     9  H    2.619900   3.682720   2.638643   2.198629   2.398075
    10  O    3.697828   4.520830   3.752851   2.363911   3.296850
    11  H    3.716734   4.520837   3.509085   3.218420   4.047512
    12  C    3.566829   3.972603   4.369093   1.554779   2.179330
    13  H    4.181172   4.575280   4.833277   2.144056   3.057796
    14  C    1.522906   2.131415   2.121621   2.433847   2.809258
    15  H    2.134236   2.473685   2.376842   3.236761   3.812512
    16  O    2.447356   2.626525   3.356505   2.345263   2.649050
    17  N    4.608063   4.828442   5.546071   2.576212   2.782016
    18  C    4.781664   4.968942   5.791293   3.058004   2.732608
    19  H    4.180330   4.463453   5.166451   2.785294   2.113200
    20  C    6.023626   6.094319   7.062786   4.359770   3.993971
    21  H    6.454867   6.512743   7.492883   5.007189   4.432702
    22  C    6.958130   6.963480   7.991166   5.125069   5.004402
    23  H    7.939672   7.891436   8.988761   6.173158   5.996088
    24  H    7.996770   8.254736   8.934830   5.338253   5.280784
    25  C    6.806559   6.821006   7.782305   4.850595   5.036599
    26  C    5.718967   5.828765   6.631897   3.685074   4.062722
    27  H    5.938403   6.061074   6.751545   3.922894   4.547899
    28  C    8.093497   8.053651   9.034716   6.125867   6.442417
    29  O    8.430281   8.448107   9.291059   6.311170   6.809395
    30  N    9.094383   8.962032  10.086601   7.304431   7.482721
    31  H    9.861408   9.692106  10.830462   8.118199   8.373566
    32  H    8.841820   8.615565   9.868872   7.380753   7.452407
    33  C    7.850904   8.652352   8.215132   4.507476   5.125949
    34  C    7.642663   8.204717   8.333778   4.283971   4.647217
    35  C    8.361173   8.783546   9.148528   5.208262   5.512301
    36  C   10.015691  10.259107  10.930080   7.211788   7.292842
    37  C    8.747940   9.084993   9.629461   5.816399   5.864518
    38  O    6.968061   7.607947   7.645406   3.589135   3.736812
    39  S    8.193318   8.822057   8.724056   4.846806   5.504662
    40  H    8.251130   9.082182   8.642038   4.858519   5.265870
    41  H    6.812511   7.644269   7.142379   3.544225   4.221816
    42  H   10.067793  10.209168  11.037430   7.532620   7.527430
    43  H   10.231361  10.455333  11.118815   7.420730   7.653433
    44  H   10.876585  11.170439  11.772769   7.959576   7.995436
    45  H    9.030980   9.446242   9.884832   6.018090   5.932241
    46  H    8.963179   9.346201   9.726689   5.869338   6.310960
    47  H    1.090000   1.783927   1.788077   3.343079   2.927484
    48  H    8.494366   9.322208   8.753697   5.299237   5.996041
                    6          7          8          9         10
     6  O    0.000000
     7  H    0.981532   0.000000
     8  C    2.416836   3.284472   0.000000
     9  H    2.895433   3.756293   1.103078   0.000000
    10  O    2.582390   3.521448   1.400289   2.083864   0.000000
    11  H    3.507090   4.463407   1.935366   2.324211   0.963552
    12  C    2.506157   2.771469   2.361225   3.317817   2.934923
    13  H    2.649035   2.983124   2.645683   3.721839   2.657669
    14  C    3.652378   4.352001   1.563080   2.213490   2.474284
    15  H    4.272870   5.028107   2.176820   2.873995   2.493296
    16  O    3.613293   4.030904   2.408572   3.239683   3.253754
    17  N    3.253176   3.054346   3.737694   4.579937   4.346512
    18  C    3.806281   3.469841   4.308900   4.912775   5.204215
    19  H    3.694371   3.494925   3.922008   4.316707   5.025876
    20  C    4.931010   4.408043   5.661618   6.250804   6.509810
    21  H    5.587726   5.038439   6.294551   6.741598   7.263422
    22  C    5.530679   4.942038   6.428202   7.163183   7.061360
    23  H    6.531066   5.881111   7.493633   8.204307   8.133805
    24  H    5.210287   4.360872   6.834468   7.497462   7.277753
    25  C    5.178588   4.685885   6.043648   6.928881   6.436922
    26  C    4.078580   3.768013   4.771534   5.716553   5.091923
    27  H    4.185890   4.008987   4.798004   5.834285   4.829899
    28  C    6.302707   5.795609   7.247246   8.201402   7.437491
    29  O    6.327736   5.876675   7.337899   8.347092   7.299437
    30  N    7.535454   6.965219   8.467261   9.379909   8.763078
    31  H    8.313275   7.769467   9.218698  10.173663   9.414445
    32  H    7.780586   7.251652   8.502538   9.379186   8.934372
    33  C    3.161462   2.861995   5.354421   5.780740   4.854874
    34  C    3.447354   2.592311   5.652342   6.291222   5.638494
    35  C    4.603419   3.757183   6.611716   7.335425   6.652071
    36  C    6.856417   5.972825   8.677042   9.394690   8.903236
    37  C    5.426784   4.517083   7.315295   7.974310   7.597071
    38  O    2.761437   1.790214   5.031109   5.506564   5.241868
    39  S    3.759969   3.234682   5.895765   6.569500   5.451757
    40  H    3.511447   3.038465   5.832403   6.123850   5.532795
    41  H    2.186466   2.134653   4.290069   4.701204   3.813740
    42  H    7.363214   6.509185   8.988931   9.713846   9.330735
    43  H    7.026671   6.206354   8.808229   9.608279   8.886164
    44  H    7.490403   6.561864   9.453013  10.108849   9.668049
    45  H    5.532114   4.565176   7.553564   8.083742   7.903259
    46  H    5.239658   4.491441   7.166500   7.969628   7.037905
    47  H    4.614598   5.177648   2.798446   2.583413   4.111829
    48  H    3.957850   3.833454   5.927691   6.319067   5.214943
                   11         12         13         14         15
    11  H    0.000000
    12  C    3.723208   0.000000
    13  H    3.430998   1.097961   0.000000
    14  C    2.703145   2.318776   2.728347   0.000000
    15  H    2.441842   2.903343   2.930235   1.098056   0.000000
    16  O    3.759469   1.421835   2.091994   1.442387   2.067043
    17  N    5.173186   1.464737   2.091361   3.599177   4.218296
    18  C    6.016714   2.444941   3.332075   4.150577   4.976145
    19  H    5.781607   2.625417   3.674232   3.812203   4.782889
    20  C    7.341797   3.697362   4.447732   5.464628   6.248794
    21  H    8.079352   4.554184   5.398260   6.107998   6.975788
    22  C    7.911040   4.209884   4.680523   6.206387   6.829542
    23  H    8.986764   5.285647   5.737240   7.250627   7.872207
    24  H    8.218806   4.861181   5.169388   7.085415   7.748560
    25  C    7.266351   3.702884   3.865783   5.817399   6.254947
    26  C    5.907638   2.431881   2.497457   4.590640   4.980683
    27  H    5.592137   2.620528   2.213087   4.645169   4.812192
    28  C    8.238053   4.919752   4.817246   7.012335   7.289855
    29  O    8.070849   5.123621   4.762698   7.203133   7.345070
    30  N    9.563739   6.113262   6.133114   8.143501   8.466680
    31  H   10.184819   6.873302   6.775779   8.864500   9.092913
    32  H    9.707959   6.149886   6.307398   8.032242   8.392493
    33  C    5.634907   5.144743   4.798051   6.617685   6.982690
    34  C    6.584014   4.324829   4.233064   6.452401   6.982465
    35  C    7.594403   4.905015   4.813264   7.179787   7.679540
    36  C    9.844218   6.688417   6.756062   8.987687   9.535400
    37  C    8.552282   5.467016   5.620019   7.738149   8.355551
    38  O    6.194380   3.983041   4.159960   5.933436   6.615041
    39  S    6.302013   4.949728   4.490625   6.847872   7.158302
    40  H    6.332088   5.641745   5.478503   7.137621   7.631205
    41  H    4.606611   4.320708   4.020732   5.603084   5.983567
    42  H   10.259233   6.881748   7.043556   9.133150   9.699140
    43  H    9.801709   6.780498   6.678958   9.096076   9.530002
    44  H   10.619868   7.579578   7.660648   9.867887  10.450869
    45  H    8.866671   5.930389   6.187003   8.110542   8.817952
    46  H    7.943427   5.420195   5.133001   7.688558   8.059991
    47  H    4.278886   3.696850   4.510228   2.163777   3.048814
    48  H    5.873765   5.945065   5.473563   7.235418   7.482674
                   16         17         18         19         20
    16  O    0.000000
    17  N    2.351757   0.000000
    18  C    2.960075   1.359217   0.000000
    19  H    2.880910   2.100425   1.078207   0.000000
    20  C    4.198460   2.358758   1.357831   2.124011   0.000000
    21  H    4.929720   3.331639   2.109867   2.444543   1.078071
    22  C    4.842728   2.745585   2.377463   3.361904   1.383101
    23  H    5.874470   3.821651   3.351877   4.251892   2.138753
    24  H    5.917359   3.581840   3.362505   4.185473   2.670767
    25  C    4.456757   2.367247   2.742167   3.819901   2.394743
    26  C    3.307391   1.346031   2.345509   3.311565   2.726185
    27  H    3.511093   2.096915   3.320366   4.191055   3.807070
    28  C    5.678635   3.743769   4.256575   5.333969   3.799872
    29  O    5.982948   4.193355   4.978131   6.030093   4.750111
    30  N    6.749973   4.819164   5.030730   6.087104   4.234562
    31  H    7.489894   5.661714   5.986660   7.050346   5.245009
    32  H    6.600898   4.819420   4.851618   5.856587   3.959992
    33  C    6.471870   5.434094   6.085842   6.301487   6.776751
    34  C    5.726063   3.833208   4.278483   4.829358   4.533056
    35  C    6.235029   4.065215   4.441980   5.204608   4.324498
    36  C    7.816897   5.471153   5.460191   6.326124   4.693531
    37  C    6.657708   4.336189   4.297580   5.073187   3.756021
    38  O    5.317770   3.602127   3.775787   4.077175   4.183736
    39  S    6.355954   4.869009   5.636245   6.148292   6.088210
    40  H    6.965492   5.793563   6.221712   6.361486   6.810919
    41  H    5.574654   4.825604   5.504721   5.612338   6.369277
    42  H    7.870772   5.541662   5.385672   6.278807   4.410152
    43  H    7.931030   5.642392   5.873641   6.811237   5.229799
    44  H    8.746938   6.403134   6.312953   7.099813   5.531302
    45  H    7.126192   4.881372   4.641309   5.235617   4.119335
    46  H    6.739413   4.644498   5.212765   6.049888   5.091146
    47  H    2.779378   4.552352   4.438862   3.645525   5.637523
    48  H    7.220570   6.361348   7.097691   7.303200   7.824774
                   21         22         23         24         25
    21  H    0.000000
    22  C    2.137755   0.000000
    23  H    2.467472   1.076329   0.000000
    24  H    3.148928   2.117892   2.333255   0.000000
    25  C    3.377868   1.400330   2.159527   2.526176   0.000000
    26  C    3.803985   2.384285   3.366581   3.223871   1.369593
    27  H    4.884702   3.367282   4.266884   3.974384   2.122556
    28  C    4.678916   2.545584   2.771225   3.185620   1.514925
    29  O    5.695665   3.601712   3.918641   3.839465   2.378687
    30  N    4.884028   2.863617   2.538545   3.616464   2.462561
    31  H    5.901279   3.879722   3.539087   4.509951   3.339262
    32  H    4.500613   2.689131   2.245482   3.949229   2.608480
    33  C    7.450783   6.903523   7.691575   5.680634   6.370690
    34  C    5.217316   4.398752   5.049649   2.943847   4.018442
    35  C    5.012133   3.811294   4.249648   2.149469   3.424273
    36  C    5.089812   3.776802   3.525446   2.147486   3.860066
    37  C    4.214935   3.176767   3.311829   1.115986   3.303267
    38  O    4.722431   4.439993   5.162880   3.152767   4.345280
    39  S    6.870417   5.874505   6.566808   4.585299   5.177982
    40  H    7.351995   7.022247   7.739605   5.602962   6.690728
    41  H    7.057668   6.647874   7.532071   5.713784   6.123211
    42  H    4.706404   3.382264   2.853890   2.266827   3.687643
    43  H    5.783962   4.171347   4.007500   2.797011   3.893945
    44  H    5.796198   4.732190   4.410747   2.951455   4.922429
    45  H    4.359645   3.841288   3.939096   1.754469   4.205484
    46  H    5.852973   4.367220   4.736170   2.916768   3.718199
    47  H    5.918005   6.726799   7.670911   7.681097   6.779425
    48  H    8.524401   7.909479   8.697986   6.692115   7.286098
                   26         27         28         29         30
    26  C    0.000000
    27  H    1.081053   0.000000
    28  C    2.492396   2.675072   0.000000
    29  O    2.858088   2.580339   1.199407   0.000000
    30  N    3.705760   4.040446   1.416207   2.306266   0.000000
    31  H    4.459688   4.599820   2.019572   2.464106   1.024002
    32  H    3.867405   4.352220   2.049962   3.096996   1.022635
    33  C    5.594770   5.422638   6.964185   6.612872   8.175624
    34  C    3.693544   3.861617   4.600240   4.520319   5.641545
    35  C    3.549325   3.773839   3.687085   3.652587   4.558462
    36  C    4.754298   5.194182   3.627765   3.960445   3.658097
    37  C    3.884002   4.423571   3.629208   4.001344   4.089754
    38  O    3.905292   4.281893   5.260092   5.386182   6.257756
    39  S    4.614723   4.361369   5.487500   5.023406   6.667698
    40  H    6.047509   6.046808   7.356086   7.129438   8.465140
    41  H    5.180610   5.029372   6.887004   6.614332   8.152525
    42  H    4.808963   5.363748   3.417735   4.013051   3.076234
    43  H    4.726211   4.951031   3.304275   3.342881   3.436110
    44  H    5.773185   6.208956   4.702730   4.976302   4.643704
    45  H    4.683378   5.288169   4.691036   5.093166   5.083444
    46  H    3.875974   3.845509   3.563779   3.219621   4.450732
    47  H    5.793830   6.183860   8.169403   8.611573   9.103363
    48  H    6.468165   6.166346   7.773924   7.298419   9.013396
                   31         32         33         34         35
    31  H    0.000000
    32  H    1.681431   0.000000
    33  C    8.769516   8.761273   0.000000
    34  C    6.323494   6.214744   2.771008   0.000000
    35  C    5.189706   5.227444   4.008292   1.362338   0.000000
    36  C    4.193488   4.326196   6.429784   3.785137   2.500728
    37  C    4.834284   4.628472   5.248106   2.516068   1.479936
    38  O    7.058307   6.665968   2.851973   1.268398   2.371720
    39  S    7.168440   7.361868   1.796651   1.778549   2.611577
    40  H    9.116636   9.025236   1.090406   2.836357   4.075513
    41  H    8.800552   8.639682   1.088291   3.004242   4.315823
    42  H    3.656764   3.596681   7.305738   4.577046   3.325942
    43  H    3.762572   4.289860   6.392358   3.891098   2.533877
    44  H    5.103657   5.289980   6.752253   4.273621   3.105780
    45  H    5.853115   5.536473   5.234390   2.722138   2.108560
    46  H    4.890527   5.268896   4.291302   2.083562   1.074726
    47  H    9.942896   8.821409   7.770993   7.457847   8.195156
    48  H    9.536920   9.646102   1.090000   3.753462   4.894132
                   36         37         38         39         40
    36  C    0.000000
    37  C    1.510923   0.000000
    38  O    4.474515   3.012068   0.000000
    39  S    5.008827   4.038770   2.644313   0.000000
    40  H    6.330541   5.113601   2.660065   2.375723   0.000000
    41  H    6.786488   5.489359   2.792426   2.383918   1.771762
    42  H    1.083392   2.149044   5.132623   5.906779   7.222275
    43  H    1.083134   2.148634   4.816338   4.788528   6.444970
    44  H    1.086369   2.151203   4.914677   5.422791   6.514415
    45  H    2.147460   1.099103   2.892640   4.311398   4.873951
    46  H    2.629777   2.201033   3.281948   2.610140   4.522739
    47  H    9.768939   8.454973   6.643298   8.181577   8.030938
    48  H    7.283712   6.198983   3.938734   2.420006   1.785834
                   41         42         43         44         45
    41  H    0.000000
    42  H    7.557962   0.000000
    43  H    6.797372   1.750197   0.000000
    44  H    7.229278   1.759648   1.757922   0.000000
    45  H    5.523764   2.761574   2.970967   2.293637   0.000000
    46  H    4.710462   3.504565   2.208384   3.229424   2.956205
    47  H    6.753059   9.804885  10.095408  10.572239   8.624055
    48  H    1.775574   8.202330   7.149278   7.562945   6.204693
                   46         47         48
    46  H    0.000000
    47  H    8.904303   0.000000
    48  H    5.010836   8.490577   0.000000
 Symmetry turned off by external request.
 Stoichiometry    C16H24N2O5S
 Framework group  C1[X(C16H24N2O5S)]
 Deg. of freedom   138
 Full point group                 C1      NOp   1
 Rotational constants (GHZ):           0.2817066           0.1684959           0.1248868
 Leave Link  202 at Sun Apr  9 10:46:35 2023, MaxMem=  2684354560 cpu:               0.1 elap:               0.0
 (Enter /opt/gaussian/g16/l301.exe)
 Standard basis: def2TZVP (5D, 7F)
 Ernie: Thresh=  0.10000D-02 Tol=  0.10000D-05 Strict=F.
   894 basis functions,  1434 primitive gaussians,  1014 cartesian basis functions
    95 alpha electrons       95 beta electrons
       nuclear repulsion energy      2426.3885590077 Hartrees.
 IExCor= 4336 DFT=T Ex+Corr=M062X ExCW=0 ScaHFX=  0.540000
 ScaDFX=  1.000000  1.000000  1.000000  1.000000 ScalE2=  1.000000  1.000000
 IRadAn=      5 IRanWt=     -1 IRanGd=            0 ICorTp=0 IEmpDi=131
 NAtoms=   48 NActive=   48 NUniq=   48 SFac= 1.00D+00 NAtFMM=   60 NAOKFM=F Big=F
 Integral buffers will be    131072 words long.
 Raffenetti 2 integral format.
 Two-electron integral symmetry is turned off.
 R6Disp:  Grimme-D3 Dispersion energy=       -0.0042066217 Hartrees.
 Nuclear repulsion after empirical dispersion term =     2426.3843523860 Hartrees.
 Leave Link  301 at Sun Apr  9 10:46:35 2023, MaxMem=  2684354560 cpu:               0.9 elap:               0.1
 (Enter /opt/gaussian/g16/l302.exe)
 NPDir=0 NMtPBC=     1 NCelOv=     1 NCel=       1 NClECP=     1 NCelD=      1
         NCelK=      1 NCelE2=     1 NClLst=     1 CellRange=     0.0.
 One-electron integrals computed using PRISM.
   1 Symmetry operations used in ECPInt.
 ECPInt:  NShTT=   65703 NPrTT=  200010 LenC2=   55961 LenP2D=  118381.
 LDataN:  DoStor=T MaxTD1= 6 Len=  172
 NBasis=   894 RedAO= T EigKep=  2.17D-05  NBF=   894
 NBsUse=   894 1.00D-06 EigRej= -1.00D+00 NBFU=   894
 Precomputing XC quadrature grid using
 IXCGrd= 4 IRadAn=           5 IRanWt=          -1 IRanGd=           0 AccXCQ= 0.00D+00.
 Generated NRdTot=       0 NPtTot=           0 NUsed=           0 NTot=          32
 NSgBfM=  1000   999  1000  1000  1000 MxSgAt=    48 MxSgA2=    48.
 Leave Link  302 at Sun Apr  9 10:46:37 2023, MaxMem=  2684354560 cpu:              38.7 elap:               2.4
 (Enter /opt/gaussian/g16/l303.exe)
 DipDrv:  MaxL=1.
 Leave Link  303 at Sun Apr  9 10:46:38 2023, MaxMem=  2684354560 cpu:               4.9 elap:               0.3
 (Enter /opt/gaussian/g16/l401.exe)
 ExpMin= 9.52D-02 ExpMax= 6.07D+04 ExpMxC= 2.07D+03 IAcc=3 IRadAn=         5 AccDes= 0.00D+00
 Harris functional with IExCor= 1009 and IRadAn=       5 diagonalized for initial guess.
 HarFok:  IExCor= 1009 AccDes= 0.00D+00 IRadAn=         5 IDoV= 1 UseB2=F ITyADJ=14
 ICtDFT=  3500011 ScaDFX=  1.000000  1.000000  1.000000  1.000000
 FoFCou: FMM=F IPFlag=           0 FMFlag=      100000 FMFlg1=           0
         NFxFlg=           0 DoJE=T BraDBF=F KetDBF=T FulRan=T
         wScrn=  0.000000 ICntrl=       500 IOpCl=  0 I1Cent=   200000004 NGrid=           0
         NMat0=    1 NMatS0=      1 NMatT0=    0 NMatD0=    1 NMtDS0=    0 NMtDT0=    0
 Symmetry not used in FoFCou.
 Harris En= -1507.23901053324    
 JPrj=0 DoOrth=F DoCkMO=F.
 Leave Link  401 at Sun Apr  9 10:46:46 2023, MaxMem=  2684354560 cpu:             136.5 elap:               8.6
 (Enter /opt/gaussian/g16/l502.exe)
 Two-electron integral symmetry not used.
 Closed shell SCF:
 Using DIIS extrapolation, IDIIS=  1040.
 NGot=  2684354560 LenX=  2682275214 LenY=  2681246004
 Requested convergence on RMS density matrix=1.00D-08 within 128 cycles.
 Requested convergence on MAX density matrix=1.00D-06.
 Requested convergence on             energy=1.00D-06.
 No special actions if energy rises.
 Fock matrices will be formed incrementally for  20 cycles.
 Integral accuracy reduced to 1.0D-05 until final iterations.

 Cycle   1  Pass 0  IDiag  1:
 FoFJK:  IHMeth= 1 ICntrl=       0 DoSepK=F KAlg= 0 I1Cent=           0 FoldK=F
 IRaf= 780000000 NMat=       1 IRICut=       1 DoRegI=T DoRafI=F ISym2E= 0 IDoP0=0 IntGTp=1.
 FoFCou: FMM=F IPFlag=           0 FMFlag=      100000 FMFlg1=           0
         NFxFlg=           0 DoJE=F BraDBF=F KetDBF=F FulRan=T
         wScrn=  0.000000 ICntrl=         0 IOpCl=  0 I1Cent=           0 NGrid=           0
         NMat0=    1 NMatS0=      1 NMatT0=    0 NMatD0=    1 NMtDS0=    0 NMtDT0=    0
 Symmetry not used in FoFCou.
 E= -1507.05547014604    
 DIIS: error= 1.75D-02 at cycle   1 NSaved=   1.
 NSaved= 1 IEnMin= 1 EnMin= -1507.05547014604     IErMin= 1 ErrMin= 1.75D-02
 ErrMax= 1.75D-02  0.00D+00 EMaxC= 1.00D-01 BMatC= 1.03D+00 BMatP= 1.03D+00
 IDIUse=3 WtCom= 8.25D-01 WtEn= 1.75D-01
 Coeff-Com:  0.100D+01
 Coeff-En:   0.100D+01
 Coeff:      0.100D+01
 Gap=     0.069 Goal=   None    Shift=    0.000
 GapD=    0.069 DampG=0.500 DampE=0.500 DampFc=0.2500 IDamp=-1.
 Damping current iteration by 2.50D-01
 RMSDP=4.06D-03 MaxDP=9.15D-01              OVMax= 9.11D-01

 Cycle   2  Pass 0  IDiag  1:
 RMSU=  1.01D-03    CP:  1.00D+00
 E= -1507.31467007925     Delta-E=       -0.259199933211 Rises=F Damp=T
 DIIS: error= 9.06D-03 at cycle   2 NSaved=   2.
 NSaved= 2 IEnMin= 2 EnMin= -1507.31467007925     IErMin= 2 ErrMin= 9.06D-03
 ErrMax= 9.06D-03  0.00D+00 EMaxC= 1.00D-01 BMatC= 3.10D-01 BMatP= 1.03D+00
 IDIUse=3 WtCom= 9.09D-01 WtEn= 9.06D-02
 Coeff-Com: -0.771D+00 0.177D+01
 Coeff-En:   0.000D+00 0.100D+01
 Coeff:     -0.702D+00 0.170D+01
 Gap=     0.392 Goal=   None    Shift=    0.000
 RMSDP=1.30D-03 MaxDP=6.66D-02 DE=-2.59D-01 OVMax= 8.19D-01

 Cycle   3  Pass 0  IDiag  1:
 RMSU=  1.29D-03    CP:  9.94D-01  1.10D+00
 E= -1507.64221415784     Delta-E=       -0.327544078592 Rises=F Damp=F
 DIIS: error= 9.17D-03 at cycle   3 NSaved=   3.
 NSaved= 3 IEnMin= 3 EnMin= -1507.64221415784     IErMin= 2 ErrMin= 9.06D-03
 ErrMax= 9.17D-03  0.00D+00 EMaxC= 1.00D-01 BMatC= 1.82D-01 BMatP= 3.10D-01
 IDIUse=3 WtCom= 9.08D-01 WtEn= 9.17D-02
 Coeff-Com: -0.556D+00 0.107D+01 0.489D+00
 Coeff-En:   0.000D+00 0.000D+00 0.100D+01
 Coeff:     -0.505D+00 0.969D+00 0.536D+00
 Gap=     0.073 Goal=   None    Shift=    0.000
 RMSDP=7.88D-04 MaxDP=3.76D-02 DE=-3.28D-01 OVMax= 2.99D-01

 Cycle   4  Pass 0  IDiag  1:
 RMSU=  6.72D-04    CP:  9.96D-01  1.34D+00  7.45D-01
 E= -1507.84275763083     Delta-E=       -0.200543472995 Rises=F Damp=F
 DIIS: error= 1.63D-03 at cycle   4 NSaved=   4.
 NSaved= 4 IEnMin= 4 EnMin= -1507.84275763083     IErMin= 4 ErrMin= 1.63D-03
 ErrMax= 1.63D-03  0.00D+00 EMaxC= 1.00D-01 BMatC= 8.50D-03 BMatP= 1.82D-01
 IDIUse=3 WtCom= 9.84D-01 WtEn= 1.63D-02
 Coeff-Com: -0.180D+00 0.284D+00 0.191D+00 0.705D+00
 Coeff-En:   0.000D+00 0.000D+00 0.000D+00 0.100D+01
 Coeff:     -0.177D+00 0.279D+00 0.188D+00 0.709D+00
 Gap=     0.098 Goal=   None    Shift=    0.000
 RMSDP=1.91D-04 MaxDP=1.41D-02 DE=-2.01D-01 OVMax= 3.07D-02

 Cycle   5  Pass 0  IDiag  1:
 RMSU=  1.81D-04    CP:  9.96D-01  1.39D+00  7.65D-01  9.80D-01
 E= -1507.84857870536     Delta-E=       -0.005821074528 Rises=F Damp=F
 DIIS: error= 1.14D-03 at cycle   5 NSaved=   5.
 NSaved= 5 IEnMin= 5 EnMin= -1507.84857870536     IErMin= 5 ErrMin= 1.14D-03
 ErrMax= 1.14D-03  0.00D+00 EMaxC= 1.00D-01 BMatC= 1.70D-03 BMatP= 8.50D-03
 IDIUse=3 WtCom= 9.89D-01 WtEn= 1.14D-02
 Coeff-Com: -0.578D-01 0.807D-01 0.363D-01 0.331D+00 0.610D+00
 Coeff-En:   0.000D+00 0.000D+00 0.000D+00 0.943D-01 0.906D+00
 Coeff:     -0.571D-01 0.798D-01 0.358D-01 0.328D+00 0.613D+00
 Gap=     0.101 Goal=   None    Shift=    0.000
 RMSDP=9.03D-05 MaxDP=6.16D-03 DE=-5.82D-03 OVMax= 2.78D-02

 Cycle   6  Pass 0  IDiag  1:
 RMSU=  7.52D-05    CP:  9.96D-01  1.41D+00  7.44D-01  1.04D+00  1.04D+00
 E= -1507.85028385449     Delta-E=       -0.001705149122 Rises=F Damp=F
 DIIS: error= 2.59D-04 at cycle   6 NSaved=   6.
 NSaved= 6 IEnMin= 6 EnMin= -1507.85028385449     IErMin= 6 ErrMin= 2.59D-04
 ErrMax= 2.59D-04  0.00D+00 EMaxC= 1.00D-01 BMatC= 2.15D-04 BMatP= 1.70D-03
 IDIUse=3 WtCom= 9.97D-01 WtEn= 2.59D-03
 Coeff-Com: -0.903D-02 0.104D-01-0.567D-02 0.662D-01 0.312D+00 0.626D+00
 Coeff-En:   0.000D+00 0.000D+00 0.000D+00 0.000D+00 0.000D+00 0.100D+01
 Coeff:     -0.901D-02 0.104D-01-0.565D-02 0.661D-01 0.311D+00 0.627D+00
 Gap=     0.106 Goal=   None    Shift=    0.000
 RMSDP=3.80D-05 MaxDP=4.69D-03 DE=-1.71D-03 OVMax= 5.04D-03

 Cycle   7  Pass 0  IDiag  1:
 RMSU=  3.19D-05    CP:  9.96D-01  1.41D+00  7.47D-01  1.05D+00  1.14D+00
                    CP:  9.80D-01
 E= -1507.85047846857     Delta-E=       -0.000194614085 Rises=F Damp=F
 DIIS: error= 1.53D-04 at cycle   7 NSaved=   7.
 NSaved= 7 IEnMin= 7 EnMin= -1507.85047846857     IErMin= 7 ErrMin= 1.53D-04
 ErrMax= 1.53D-04  0.00D+00 EMaxC= 1.00D-01 BMatC= 3.01D-05 BMatP= 2.15D-04
 IDIUse=3 WtCom= 9.98D-01 WtEn= 1.53D-03
 Coeff-Com:  0.330D-02-0.520D-02-0.650D-02-0.156D-01 0.733D-01 0.301D+00
 Coeff-Com:  0.650D+00
 Coeff-En:   0.000D+00 0.000D+00 0.000D+00 0.000D+00 0.000D+00 0.000D+00
 Coeff-En:   0.100D+01
 Coeff:      0.329D-02-0.519D-02-0.649D-02-0.156D-01 0.732D-01 0.300D+00
 Coeff:      0.650D+00
 Gap=     0.106 Goal=   None    Shift=    0.000
 RMSDP=1.89D-05 MaxDP=1.81D-03 DE=-1.95D-04 OVMax= 3.31D-03

 Cycle   8  Pass 0  IDiag  1:
 RMSU=  1.47D-05    CP:  9.96D-01  1.40D+00  7.47D-01  1.05D+00  1.18D+00
                    CP:  1.08D+00  1.16D+00
 E= -1507.85051067326     Delta-E=       -0.000032204690 Rises=F Damp=F
 DIIS: error= 3.81D-05 at cycle   8 NSaved=   8.
 NSaved= 8 IEnMin= 8 EnMin= -1507.85051067326     IErMin= 8 ErrMin= 3.81D-05
 ErrMax= 3.81D-05  0.00D+00 EMaxC= 1.00D-01 BMatC= 5.40D-06 BMatP= 3.01D-05
 IDIUse=1 WtCom= 1.00D+00 WtEn= 0.00D+00
 Coeff-Com:  0.250D-02-0.337D-02-0.155D-03-0.136D-01-0.877D-02 0.126D-01
 Coeff-Com:  0.279D+00 0.732D+00
 Coeff:      0.250D-02-0.337D-02-0.155D-03-0.136D-01-0.877D-02 0.126D-01
 Coeff:      0.279D+00 0.732D+00
 Gap=     0.106 Goal=   None    Shift=    0.000
 RMSDP=1.55D-05 MaxDP=1.09D-03 DE=-3.22D-05 OVMax= 1.12D-03

 Cycle   9  Pass 0  IDiag  1:
 RMSU=  1.13D-05    CP:  9.96D-01  1.40D+00  7.48D-01  1.05D+00  1.19D+00
                    CP:  1.12D+00  1.38D+00  1.41D+00
 E= -1507.85051827812     Delta-E=       -0.000007604858 Rises=F Damp=F
 DIIS: error= 1.85D-05 at cycle   9 NSaved=   9.
 NSaved= 9 IEnMin= 9 EnMin= -1507.85051827812     IErMin= 9 ErrMin= 1.85D-05
 ErrMax= 1.85D-05  0.00D+00 EMaxC= 1.00D-01 BMatC= 6.75D-07 BMatP= 5.40D-06
 IDIUse=1 WtCom= 1.00D+00 WtEn= 0.00D+00
 Coeff-Com:  0.511D-03-0.641D-03 0.974D-03-0.205D-02-0.833D-02-0.390D-01
 Coeff-Com:  0.474D-02 0.231D+00 0.812D+00
 Coeff:      0.511D-03-0.641D-03 0.974D-03-0.205D-02-0.833D-02-0.390D-01
 Coeff:      0.474D-02 0.231D+00 0.812D+00
 Gap=     0.106 Goal=   None    Shift=    0.000
 RMSDP=2.22D-05 MaxDP=1.90D-03 DE=-7.60D-06 OVMax= 4.49D-04

 Cycle  10  Pass 0  IDiag  1:
 RMSU=  1.04D-05    CP:  9.96D-01  1.40D+00  7.50D-01  1.06D+00  1.19D+00
                    CP:  1.14D+00  1.64D+00  2.15D+00  2.17D+00
 E= -1507.85051986481     Delta-E=       -0.000001586688 Rises=F Damp=F
 DIIS: error= 3.11D-05 at cycle  10 NSaved=  10.
 NSaved=10 IEnMin=10 EnMin= -1507.85051986481     IErMin= 9 ErrMin= 1.85D-05
 ErrMax= 3.11D-05  0.00D+00 EMaxC= 1.00D-01 BMatC= 5.66D-07 BMatP= 6.75D-07
 IDIUse=1 WtCom= 1.00D+00 WtEn= 0.00D+00
 Coeff-Com:  0.397D-03-0.508D-03 0.766D-03-0.141D-02-0.595D-02-0.308D-01
 Coeff-Com: -0.326D-03 0.168D+00 0.642D+00 0.228D+00
 Coeff:      0.397D-03-0.508D-03 0.766D-03-0.141D-02-0.595D-02-0.308D-01
 Coeff:     -0.326D-03 0.168D+00 0.642D+00 0.228D+00
 Gap=     0.106 Goal=   None    Shift=    0.000
 RMSDP=8.81D-06 MaxDP=6.86D-04 DE=-1.59D-06 OVMax= 5.51D-05

 Initial convergence to 1.0D-05 achieved.  Increase integral accuracy.
 Cycle  11  Pass 1  IDiag  1:
 E= -1507.85035988858     Delta-E=        0.000159976230 Rises=F Damp=F
 DIIS: error= 3.97D-04 at cycle   1 NSaved=   1.
 NSaved= 1 IEnMin= 1 EnMin= -1507.85035988858     IErMin= 1 ErrMin= 3.97D-04
 ErrMax= 3.97D-04  0.00D+00 EMaxC= 1.00D-01 BMatC= 8.56D-05 BMatP= 8.56D-05
 IDIUse=3 WtCom= 9.96D-01 WtEn= 3.97D-03
 Coeff-Com:  0.100D+01
 Coeff-En:   0.100D+01
 Coeff:      0.100D+01
 Gap=     0.107 Goal=   None    Shift=    0.000
 RMSDP=8.81D-06 MaxDP=6.86D-04 DE= 1.60D-04 OVMax= 8.46D-04

 Cycle  12  Pass 1  IDiag  1:
 RMSU=  5.04D-04    CP:  9.93D-01
 E= -1507.85041435383     Delta-E=       -0.000054465250 Rises=F Damp=F
 DIIS: error= 8.70D-06 at cycle   2 NSaved=   2.
 NSaved= 2 IEnMin= 2 EnMin= -1507.85041435383     IErMin= 2 ErrMin= 8.70D-06
 ErrMax= 8.70D-06  0.00D+00 EMaxC= 1.00D-01 BMatC= 1.18D-07 BMatP= 8.56D-05
 IDIUse=1 WtCom= 1.00D+00 WtEn= 0.00D+00
 Coeff-Com: -0.155D-01 0.102D+01
 Coeff:     -0.155D-01 0.102D+01
 Gap=     0.106 Goal=   None    Shift=    0.000
 RMSDP=1.82D-05 MaxDP=1.23D-03 DE=-5.45D-05 OVMax= 6.20D-04

 Cycle  13  Pass 1  IDiag  1:
 RMSU=  6.80D-06    CP:  9.93D-01  1.03D+00
 E= -1507.85041428247     Delta-E=        0.000000071352 Rises=F Damp=F
 DIIS: error= 1.26D-05 at cycle   3 NSaved=   3.
 NSaved= 3 IEnMin= 2 EnMin= -1507.85041435383     IErMin= 2 ErrMin= 8.70D-06
 ErrMax= 1.26D-05  0.00D+00 EMaxC= 1.00D-01 BMatC= 2.28D-07 BMatP= 1.18D-07
 IDIUse=1 WtCom= 1.00D+00 WtEn= 0.00D+00
 Coeff-Com: -0.106D-01 0.626D+00 0.385D+00
 Coeff:     -0.106D-01 0.626D+00 0.385D+00
 Gap=     0.106 Goal=   None    Shift=    0.000
 RMSDP=8.78D-07 MaxDP=9.07D-05 DE= 7.14D-08 OVMax= 3.79D-04

 Cycle  14  Pass 1  IDiag  1:
 RMSU=  8.41D-07    CP:  9.93D-01  1.03D+00  9.97D-01
 E= -1507.85041451987     Delta-E=       -0.000000237394 Rises=F Damp=F
 DIIS: error= 2.06D-06 at cycle   4 NSaved=   4.
 NSaved= 4 IEnMin= 4 EnMin= -1507.85041451987     IErMin= 4 ErrMin= 2.06D-06
 ErrMax= 2.06D-06  0.00D+00 EMaxC= 1.00D-01 BMatC= 4.50D-09 BMatP= 1.18D-07
 IDIUse=1 WtCom= 1.00D+00 WtEn= 0.00D+00
 Coeff-Com: -0.215D-02 0.115D+00 0.125D+00 0.762D+00
 Coeff:     -0.215D-02 0.115D+00 0.125D+00 0.762D+00
 Gap=     0.106 Goal=   None    Shift=    0.000
 RMSDP=4.17D-07 MaxDP=2.26D-05 DE=-2.37D-07 OVMax= 1.12D-04

 Cycle  15  Pass 1  IDiag  1:
 RMSU=  2.41D-07    CP:  9.93D-01  1.03D+00  1.03D+00  9.50D-01
 E= -1507.85041452500     Delta-E=       -0.000000005129 Rises=F Damp=F
 DIIS: error= 1.26D-06 at cycle   5 NSaved=   5.
 NSaved= 5 IEnMin= 5 EnMin= -1507.85041452500     IErMin= 5 ErrMin= 1.26D-06
 ErrMax= 1.26D-06  0.00D+00 EMaxC= 1.00D-01 BMatC= 2.66D-09 BMatP= 4.50D-09
 IDIUse=1 WtCom= 1.00D+00 WtEn= 0.00D+00
 Coeff-Com:  0.598D-03-0.422D-01-0.159D-01 0.448D+00 0.610D+00
 Coeff:      0.598D-03-0.422D-01-0.159D-01 0.448D+00 0.610D+00
 Gap=     0.106 Goal=   None    Shift=    0.000
 RMSDP=1.57D-07 MaxDP=9.57D-06 DE=-5.13D-09 OVMax= 1.66D-05

 Cycle  16  Pass 1  IDiag  1:
 RMSU=  8.90D-08    CP:  9.93D-01  1.03D+00  1.04D+00  1.03D+00  1.13D+00
 E= -1507.85041452810     Delta-E=       -0.000000003107 Rises=F Damp=F
 DIIS: error= 2.62D-07 at cycle   6 NSaved=   6.
 NSaved= 6 IEnMin= 6 EnMin= -1507.85041452810     IErMin= 6 ErrMin= 2.62D-07
 ErrMax= 2.62D-07  0.00D+00 EMaxC= 1.00D-01 BMatC= 1.84D-10 BMatP= 2.66D-09
 IDIUse=1 WtCom= 1.00D+00 WtEn= 0.00D+00
 Coeff-Com:  0.354D-03-0.219D-01-0.280D-01 0.934D-01 0.144D+00 0.812D+00
 Coeff:      0.354D-03-0.219D-01-0.280D-01 0.934D-01 0.144D+00 0.812D+00
 Gap=     0.106 Goal=   None    Shift=    0.000
 RMSDP=5.63D-08 MaxDP=4.70D-06 DE=-3.11D-09 OVMax= 1.44D-05

 Cycle  17  Pass 1  IDiag  1:
 RMSU=  3.22D-08    CP:  9.93D-01  1.03D+00  1.04D+00  1.06D+00  1.28D+00
                    CP:  1.21D+00
 E= -1507.85041452843     Delta-E=       -0.000000000326 Rises=F Damp=F
 DIIS: error= 2.30D-07 at cycle   7 NSaved=   7.
 NSaved= 7 IEnMin= 7 EnMin= -1507.85041452843     IErMin= 7 ErrMin= 2.30D-07
 ErrMax= 2.30D-07  0.00D+00 EMaxC= 1.00D-01 BMatC= 6.81D-11 BMatP= 1.84D-10
 IDIUse=1 WtCom= 1.00D+00 WtEn= 0.00D+00
 Coeff-Com: -0.483D-04 0.466D-02-0.147D-01-0.870D-01-0.157D+00 0.383D+00
 Coeff-Com:  0.872D+00
 Coeff:     -0.483D-04 0.466D-02-0.147D-01-0.870D-01-0.157D+00 0.383D+00
 Coeff:      0.872D+00
 Gap=     0.106 Goal=   None    Shift=    0.000
 RMSDP=3.93D-08 MaxDP=2.66D-06 DE=-3.26D-10 OVMax= 1.24D-05

 Cycle  18  Pass 1  IDiag  1:
 RMSU=  1.75D-08    CP:  9.93D-01  1.03D+00  1.04D+00  1.07D+00  1.35D+00
                    CP:  1.44D+00  1.54D+00
 E= -1507.85041452853     Delta-E=       -0.000000000104 Rises=F Damp=F
 DIIS: error= 5.46D-08 at cycle   8 NSaved=   8.
 NSaved= 8 IEnMin= 8 EnMin= -1507.85041452853     IErMin= 8 ErrMin= 5.46D-08
 ErrMax= 5.46D-08  0.00D+00 EMaxC= 1.00D-01 BMatC= 7.87D-12 BMatP= 6.81D-11
 IDIUse=1 WtCom= 1.00D+00 WtEn= 0.00D+00
 Coeff-Com: -0.623D-04 0.459D-02-0.492D-02-0.451D-01-0.916D-01 0.727D-01
 Coeff-Com:  0.359D+00 0.706D+00
 Coeff:     -0.623D-04 0.459D-02-0.492D-02-0.451D-01-0.916D-01 0.727D-01
 Coeff:      0.359D+00 0.706D+00
 Gap=     0.106 Goal=   None    Shift=    0.000
 RMSDP=1.31D-08 MaxDP=1.31D-06 DE=-1.04D-10 OVMax= 3.52D-06

 Cycle  19  Pass 1  IDiag  1:
 RMSU=  5.52D-09    CP:  9.93D-01  1.03D+00  1.04D+00  1.07D+00  1.37D+00
                    CP:  1.48D+00  1.78D+00  1.25D+00
 E= -1507.85041452854     Delta-E=       -0.000000000005 Rises=F Damp=F
 DIIS: error= 2.43D-08 at cycle   9 NSaved=   9.
 NSaved= 9 IEnMin= 9 EnMin= -1507.85041452854     IErMin= 9 ErrMin= 2.43D-08
 ErrMax= 2.43D-08  0.00D+00 EMaxC= 1.00D-01 BMatC= 1.29D-12 BMatP= 7.87D-12
 IDIUse=1 WtCom= 1.00D+00 WtEn= 0.00D+00
 Coeff-Com: -0.214D-04 0.132D-02-0.117D-03-0.118D-02-0.132D-01-0.358D-01
 Coeff-Com: -0.225D-02 0.309D+00 0.742D+00
 Coeff:     -0.214D-04 0.132D-02-0.117D-03-0.118D-02-0.132D-01-0.358D-01
 Coeff:     -0.225D-02 0.309D+00 0.742D+00
 Gap=     0.106 Goal=   None    Shift=    0.000
 RMSDP=5.41D-09 MaxDP=4.75D-07 DE=-4.55D-12 OVMax= 1.79D-06

 SCF Done:  E(RM062X) =  -1507.85041453     A.U. after   19 cycles
            NFock= 19  Conv=0.54D-08     -V/T= 2.0038
 KE= 1.502095071128D+03 PE=-8.391066118334D+03 EE= 2.954736280292D+03
 Leave Link  502 at Sun Apr  9 11:06:49 2023, MaxMem=  2684354560 cpu:           19223.0 elap:            1202.0
 (Enter /opt/gaussian/g16/l601.exe)
 Copying SCF densities to generalized density rwf, IOpCl= 0 IROHF=0.

 **********************************************************************

            Population analysis using the SCF density.

 **********************************************************************

 Alpha  occ. eigenvalues --  -89.84692 -19.66772 -19.64312 -19.63129 -19.61213
 Alpha  occ. eigenvalues --  -19.54462 -14.87730 -14.79194 -10.68159 -10.66373
 Alpha  occ. eigenvalues --  -10.64472 -10.63729 -10.61682 -10.61452 -10.61318
 Alpha  occ. eigenvalues --  -10.60451 -10.60298 -10.59135 -10.56809 -10.55231
 Alpha  occ. eigenvalues --  -10.51076 -10.50573 -10.49755 -10.47371  -8.20662
 Alpha  occ. eigenvalues --   -6.12622  -6.12400  -6.12153  -1.21605  -1.20147
 Alpha  occ. eigenvalues --   -1.17355  -1.15380  -1.13876  -1.07789  -1.03371
 Alpha  occ. eigenvalues --   -0.98000  -0.93366  -0.90009  -0.88019  -0.86328
 Alpha  occ. eigenvalues --   -0.83585  -0.81815  -0.80492  -0.77447  -0.76688
 Alpha  occ. eigenvalues --   -0.72700  -0.69873  -0.69837  -0.68916  -0.66992
 Alpha  occ. eigenvalues --   -0.64735  -0.63927  -0.62960  -0.62400  -0.61431
 Alpha  occ. eigenvalues --   -0.59954  -0.57816  -0.57180  -0.56314  -0.55797
 Alpha  occ. eigenvalues --   -0.55106  -0.54544  -0.53409  -0.52011  -0.51445
 Alpha  occ. eigenvalues --   -0.50977  -0.50049  -0.49561  -0.49247  -0.48995
 Alpha  occ. eigenvalues --   -0.48371  -0.47828  -0.47273  -0.47256  -0.45619
 Alpha  occ. eigenvalues --   -0.44843  -0.44306  -0.43461  -0.42172  -0.41642
 Alpha  occ. eigenvalues --   -0.40936  -0.39619  -0.38957  -0.38654  -0.37913
 Alpha  occ. eigenvalues --   -0.37236  -0.36804  -0.36395  -0.36084  -0.35881
 Alpha  occ. eigenvalues --   -0.34782  -0.33986  -0.26766  -0.25824  -0.18426
 Alpha virt. eigenvalues --   -0.07778  -0.04574   0.03363   0.03751   0.04472
 Alpha virt. eigenvalues --    0.05072   0.06795   0.06928   0.08011   0.08895
 Alpha virt. eigenvalues --    0.09557   0.09772   0.10592   0.10776   0.10969
 Alpha virt. eigenvalues --    0.11564   0.11773   0.12497   0.13432   0.13620
 Alpha virt. eigenvalues --    0.13822   0.14494   0.14578   0.15063   0.15556
 Alpha virt. eigenvalues --    0.16241   0.16711   0.16976   0.17225   0.17782
 Alpha virt. eigenvalues --    0.18073   0.18692   0.18877   0.19214   0.19669
 Alpha virt. eigenvalues --    0.20346   0.20458   0.20896   0.21702   0.22106
 Alpha virt. eigenvalues --    0.22670   0.22885   0.23447   0.23692   0.23865
 Alpha virt. eigenvalues --    0.24591   0.24974   0.25542   0.26017   0.26609
 Alpha virt. eigenvalues --    0.26802   0.27371   0.27671   0.27973   0.28595
 Alpha virt. eigenvalues --    0.29191   0.29665   0.29975   0.30441   0.30723
 Alpha virt. eigenvalues --    0.31537   0.31701   0.31873   0.32453   0.32727
 Alpha virt. eigenvalues --    0.33173   0.33805   0.34230   0.34767   0.35200
 Alpha virt. eigenvalues --    0.36357   0.36794   0.37038   0.37227   0.37643
 Alpha virt. eigenvalues --    0.38089   0.38982   0.39189   0.39614   0.39801
 Alpha virt. eigenvalues --    0.40244   0.40288   0.41230   0.41593   0.41655
 Alpha virt. eigenvalues --    0.42284   0.42470   0.42715   0.43596   0.43656
 Alpha virt. eigenvalues --    0.44409   0.44597   0.44726   0.45126   0.45526
 Alpha virt. eigenvalues --    0.46069   0.46419   0.46720   0.47058   0.47360
 Alpha virt. eigenvalues --    0.47491   0.47663   0.48365   0.48584   0.48827
 Alpha virt. eigenvalues --    0.49185   0.49749   0.50193   0.50395   0.50833
 Alpha virt. eigenvalues --    0.51418   0.51641   0.51927   0.52489   0.52835
 Alpha virt. eigenvalues --    0.53013   0.53535   0.53953   0.54311   0.54706
 Alpha virt. eigenvalues --    0.55078   0.55184   0.55686   0.56592   0.57080
 Alpha virt. eigenvalues --    0.57192   0.57680   0.58614   0.58713   0.59114
 Alpha virt. eigenvalues --    0.59382   0.59807   0.60590   0.60802   0.61054
 Alpha virt. eigenvalues --    0.62095   0.62656   0.62998   0.64328   0.64928
 Alpha virt. eigenvalues --    0.65663   0.65798   0.66001   0.67484   0.67927
 Alpha virt. eigenvalues --    0.68024   0.68554   0.69291   0.69650   0.70217
 Alpha virt. eigenvalues --    0.70551   0.71048   0.72215   0.72615   0.73344
 Alpha virt. eigenvalues --    0.74109   0.74663   0.75174   0.75879   0.76598
 Alpha virt. eigenvalues --    0.77517   0.78124   0.78595   0.79680   0.80693
 Alpha virt. eigenvalues --    0.80909   0.81721   0.82298   0.82764   0.83707
 Alpha virt. eigenvalues --    0.84182   0.84755   0.85017   0.86109   0.86544
 Alpha virt. eigenvalues --    0.86872   0.87360   0.88431   0.89078   0.89789
 Alpha virt. eigenvalues --    0.90389   0.90938   0.91189   0.92094   0.92508
 Alpha virt. eigenvalues --    0.92888   0.94152   0.94624   0.95074   0.95355
 Alpha virt. eigenvalues --    0.96054   0.97415   0.97925   0.98575   0.98861
 Alpha virt. eigenvalues --    0.99733   1.00632   1.01062   1.02427   1.03279
 Alpha virt. eigenvalues --    1.03721   1.04028   1.04558   1.04927   1.05862
 Alpha virt. eigenvalues --    1.07524   1.07665   1.08144   1.08611   1.09162
 Alpha virt. eigenvalues --    1.09827   1.10576   1.11599   1.12334   1.13098
 Alpha virt. eigenvalues --    1.13514   1.13701   1.14594   1.14807   1.15365
 Alpha virt. eigenvalues --    1.16273   1.16918   1.17454   1.17989   1.18832
 Alpha virt. eigenvalues --    1.19286   1.21289   1.21498   1.21948   1.22507
 Alpha virt. eigenvalues --    1.23291   1.24148   1.24906   1.25720   1.26035
 Alpha virt. eigenvalues --    1.26357   1.27753   1.28149   1.29564   1.30266
 Alpha virt. eigenvalues --    1.31096   1.31921   1.32207   1.34107   1.34592
 Alpha virt. eigenvalues --    1.34737   1.35684   1.36800   1.38080   1.38601
 Alpha virt. eigenvalues --    1.39511   1.40809   1.41014   1.42658   1.43826
 Alpha virt. eigenvalues --    1.44285   1.45534   1.46541   1.47917   1.48604
 Alpha virt. eigenvalues --    1.49836   1.50013   1.51226   1.51873   1.52800
 Alpha virt. eigenvalues --    1.53232   1.53569   1.53761   1.55013   1.55849
 Alpha virt. eigenvalues --    1.56157   1.56635   1.57471   1.57685   1.58679
 Alpha virt. eigenvalues --    1.58820   1.59103   1.59944   1.60490   1.61044
 Alpha virt. eigenvalues --    1.61677   1.61940   1.62511   1.62855   1.63099
 Alpha virt. eigenvalues --    1.63427   1.64233   1.64778   1.65789   1.66130
 Alpha virt. eigenvalues --    1.66877   1.67377   1.67688   1.67770   1.68992
 Alpha virt. eigenvalues --    1.69088   1.69621   1.70360   1.71064   1.71147
 Alpha virt. eigenvalues --    1.72487   1.72638   1.73153   1.73815   1.73878
 Alpha virt. eigenvalues --    1.74972   1.75250   1.75836   1.76241   1.77405
 Alpha virt. eigenvalues --    1.78527   1.79186   1.80165   1.80518   1.80884
 Alpha virt. eigenvalues --    1.82208   1.82361   1.83083   1.84182   1.84903
 Alpha virt. eigenvalues --    1.85638   1.86373   1.86888   1.87741   1.88783
 Alpha virt. eigenvalues --    1.89472   1.90270   1.90402   1.90928   1.91027
 Alpha virt. eigenvalues --    1.91588   1.92379   1.92862   1.93230   1.93466
 Alpha virt. eigenvalues --    1.94325   1.95296   1.95667   1.95892   1.97089
 Alpha virt. eigenvalues --    1.97751   1.98218   1.98685   1.99703   2.00618
 Alpha virt. eigenvalues --    2.01798   2.02833   2.02900   2.03929   2.04835
 Alpha virt. eigenvalues --    2.05391   2.05756   2.06750   2.07658   2.08093
 Alpha virt. eigenvalues --    2.08878   2.09146   2.09778   2.10450   2.10937
 Alpha virt. eigenvalues --    2.11979   2.12202   2.13805   2.14441   2.15282
 Alpha virt. eigenvalues --    2.15390   2.15956   2.17058   2.17682   2.18469
 Alpha virt. eigenvalues --    2.19120   2.19449   2.20226   2.21149   2.21901
 Alpha virt. eigenvalues --    2.22164   2.22509   2.23325   2.24690   2.25238
 Alpha virt. eigenvalues --    2.26690   2.27575   2.27816   2.28085   2.28581
 Alpha virt. eigenvalues --    2.29321   2.30084   2.30513   2.30831   2.31769
 Alpha virt. eigenvalues --    2.32345   2.32549   2.33248   2.33731   2.34553
 Alpha virt. eigenvalues --    2.35098   2.36254   2.37513   2.38154   2.38454
 Alpha virt. eigenvalues --    2.39567   2.40881   2.41937   2.43198   2.43428
 Alpha virt. eigenvalues --    2.44173   2.44899   2.45008   2.46106   2.46371
 Alpha virt. eigenvalues --    2.46804   2.47139   2.47539   2.48159   2.48841
 Alpha virt. eigenvalues --    2.49484   2.51301   2.52211   2.53668   2.53737
 Alpha virt. eigenvalues --    2.55046   2.56098   2.57101   2.57867   2.58554
 Alpha virt. eigenvalues --    2.58878   2.59765   2.60618   2.60898   2.61394
 Alpha virt. eigenvalues --    2.62075   2.62142   2.62524   2.63784   2.64331
 Alpha virt. eigenvalues --    2.65155   2.66029   2.66357   2.66755   2.67290
 Alpha virt. eigenvalues --    2.68785   2.69103   2.69411   2.69717   2.70724
 Alpha virt. eigenvalues --    2.70785   2.72069   2.73092   2.73262   2.73442
 Alpha virt. eigenvalues --    2.74414   2.75294   2.75692   2.76393   2.77245
 Alpha virt. eigenvalues --    2.78195   2.78504   2.79191   2.79591   2.80244
 Alpha virt. eigenvalues --    2.80996   2.81829   2.82615   2.83614   2.83992
 Alpha virt. eigenvalues --    2.84695   2.85353   2.85841   2.86607   2.87211
 Alpha virt. eigenvalues --    2.88016   2.88711   2.89881   2.90849   2.91578
 Alpha virt. eigenvalues --    2.92715   2.93404   2.94136   2.94739   2.95248
 Alpha virt. eigenvalues --    2.95388   2.97188   2.97831   2.99107   2.99289
 Alpha virt. eigenvalues --    3.00292   3.00905   3.00979   3.01362   3.02722
 Alpha virt. eigenvalues --    3.03114   3.04076   3.04525   3.05229   3.05699
 Alpha virt. eigenvalues --    3.06545   3.06784   3.07301   3.07895   3.08998
 Alpha virt. eigenvalues --    3.10000   3.10350   3.11016   3.11788   3.12470
 Alpha virt. eigenvalues --    3.12832   3.13370   3.13659   3.14434   3.14711
 Alpha virt. eigenvalues --    3.15870   3.16648   3.16756   3.17765   3.18217
 Alpha virt. eigenvalues --    3.18439   3.19121   3.19456   3.20034   3.20720
 Alpha virt. eigenvalues --    3.20882   3.21447   3.22734   3.23487   3.24182
 Alpha virt. eigenvalues --    3.24431   3.24628   3.26258   3.26891   3.27147
 Alpha virt. eigenvalues --    3.27668   3.28243   3.29052   3.30036   3.30301
 Alpha virt. eigenvalues --    3.31280   3.31347   3.31829   3.32559   3.33329
 Alpha virt. eigenvalues --    3.33854   3.34910   3.35111   3.35576   3.36481
 Alpha virt. eigenvalues --    3.36827   3.37389   3.37794   3.38120   3.38682
 Alpha virt. eigenvalues --    3.39386   3.39881   3.40181   3.40768   3.41555
 Alpha virt. eigenvalues --    3.41923   3.42997   3.43451   3.44453   3.44998
 Alpha virt. eigenvalues --    3.45643   3.46446   3.46987   3.47614   3.47851
 Alpha virt. eigenvalues --    3.48903   3.49105   3.49799   3.50816   3.51988
 Alpha virt. eigenvalues --    3.52746   3.52887   3.53244   3.53856   3.55119
 Alpha virt. eigenvalues --    3.55631   3.56055   3.56836   3.57800   3.58690
 Alpha virt. eigenvalues --    3.59748   3.61020   3.62920   3.63072   3.64862
 Alpha virt. eigenvalues --    3.65852   3.66115   3.67451   3.69013   3.69390
 Alpha virt. eigenvalues --    3.70481   3.71205   3.71928   3.73194   3.74262
 Alpha virt. eigenvalues --    3.74703   3.75245   3.76827   3.77081   3.79025
 Alpha virt. eigenvalues --    3.79787   3.80934   3.81558   3.82083   3.83162
 Alpha virt. eigenvalues --    3.84743   3.85209   3.86343   3.87361   3.88172
 Alpha virt. eigenvalues --    3.88746   3.90198   3.91481   3.92703   3.92966
 Alpha virt. eigenvalues --    3.94194   3.95065   3.95979   3.96923   3.99073
 Alpha virt. eigenvalues --    4.00327   4.01011   4.01808   4.04695   4.05802
 Alpha virt. eigenvalues --    4.06441   4.07479   4.07977   4.10151   4.10714
 Alpha virt. eigenvalues --    4.11393   4.12308   4.13625   4.14286   4.17959
 Alpha virt. eigenvalues --    4.18507   4.19424   4.19844   4.23335   4.25580
 Alpha virt. eigenvalues --    4.26575   4.26781   4.28125   4.29606   4.30722
 Alpha virt. eigenvalues --    4.31437   4.33274   4.33703   4.34770   4.35312
 Alpha virt. eigenvalues --    4.36932   4.38486   4.38851   4.39782   4.40804
 Alpha virt. eigenvalues --    4.43689   4.43846   4.45655   4.46181   4.47410
 Alpha virt. eigenvalues --    4.48500   4.50420   4.53399   4.54563   4.56918
 Alpha virt. eigenvalues --    4.59604   4.60477   4.61444   4.64106   4.68990
 Alpha virt. eigenvalues --    4.69499   4.71724   4.73513   4.74631   4.75346
 Alpha virt. eigenvalues --    4.76759   4.78094   4.79637   4.79893   4.81488
 Alpha virt. eigenvalues --    4.82552   4.86287   4.87806   4.88033   4.90873
 Alpha virt. eigenvalues --    4.91504   4.93889   4.94812   4.95861   4.96771
 Alpha virt. eigenvalues --    4.98260   4.98741   5.00517   5.01702   5.04086
 Alpha virt. eigenvalues --    5.04928   5.08363   5.11198   5.15227   5.17763
 Alpha virt. eigenvalues --    5.18730   5.21961   5.24352   5.28314   5.29056
 Alpha virt. eigenvalues --    5.29320   5.29680   5.30135   5.31534   5.36280
 Alpha virt. eigenvalues --    5.37839   5.40549   5.42862   5.44718   5.46519
 Alpha virt. eigenvalues --    5.47762   5.49874   5.52969   5.53738   5.60435
 Alpha virt. eigenvalues --    5.62266   5.63453   5.70413   5.73492   5.75672
 Alpha virt. eigenvalues --    5.76828   5.79081   5.80870   5.82605   5.84008
 Alpha virt. eigenvalues --    5.84566   5.86504   5.87949   5.90191   5.94302
 Alpha virt. eigenvalues --    5.97540   6.00819   6.06587   6.16760   6.17762
 Alpha virt. eigenvalues --    6.21377   6.23735   6.27883   6.31414   6.37390
 Alpha virt. eigenvalues --    6.40205   6.40749   6.50582   6.51976   6.55040
 Alpha virt. eigenvalues --    6.56413   6.63617   6.68990   6.72277   6.72711
 Alpha virt. eigenvalues --    6.75441   6.78354   6.82556   6.84321   6.85906
 Alpha virt. eigenvalues --    6.89068   6.92639   6.98826   7.06032   7.06942
 Alpha virt. eigenvalues --    7.07930   7.10308   7.12601   7.16602   7.22703
 Alpha virt. eigenvalues --    7.27327   7.31765   9.05700   9.44489   9.58261
 Alpha virt. eigenvalues --   19.89961  22.35192  22.44218  22.55162  22.58078
 Alpha virt. eigenvalues --   22.61545  22.68717  22.69424  22.75522  22.78473
 Alpha virt. eigenvalues --   22.82755  22.92031  22.93441  23.05386  23.19110
 Alpha virt. eigenvalues --   23.21982  23.37891  32.08902  33.13634  44.10652
 Alpha virt. eigenvalues --   44.21823  44.23078  44.28837  44.48279
          Condensed to atoms (all electrons):
               1          2          3          4          5          6
     1  C    5.101462   0.424406   0.418725  -0.007579   0.000685  -0.000367
     2  H    0.424406   0.510346  -0.022156  -0.001087   0.000226  -0.000003
     3  H    0.418725  -0.022156   0.531258   0.001629  -0.000026  -0.000006
     4  C   -0.007579  -0.001087   0.001629   5.403258   0.493745   0.301261
     5  H    0.000685   0.000226  -0.000026   0.493745   0.561643  -0.033329
     6  O   -0.000367  -0.000003  -0.000006   0.301261  -0.033329   8.050509
     7  H   -0.000057  -0.000004   0.000004  -0.035257  -0.012723   0.271381
     8  C    0.014241   0.012838  -0.009413  -0.048997  -0.068535  -0.058391
     9  H    0.011630   0.000125  -0.002349  -0.099768   0.001495   0.004406
    10  O    0.006806  -0.000370   0.000288  -0.041918   0.001412  -0.010274
    11  H   -0.001479  -0.000119   0.000472   0.015721  -0.000742  -0.000493
    12  C   -0.004509  -0.000066   0.000571  -0.016233  -0.103111  -0.039692
    13  H    0.000155   0.000013   0.000096  -0.082093   0.006876   0.009776
    14  C    0.166005  -0.050483  -0.041740   0.128242   0.014205   0.006615
    15  H   -0.068300  -0.007278  -0.003498  -0.007217   0.000013   0.000111
    16  O   -0.027901   0.000801   0.005003  -0.056013   0.002404   0.005114
    17  N    0.000066  -0.000051  -0.000036   0.011321  -0.011410  -0.003409
    18  C   -0.001139  -0.000001   0.000029  -0.010690  -0.002833   0.003276
    19  H    0.000016  -0.000029   0.000022  -0.005629   0.000718   0.000549
    20  C    0.000059  -0.000004  -0.000001   0.005523   0.007539  -0.001171
    21  H    0.000004   0.000000  -0.000000  -0.000032   0.000140  -0.000015
    22  C   -0.000015   0.000001   0.000000   0.001474  -0.000847   0.000159
    23  H   -0.000000   0.000000  -0.000000   0.000017  -0.000004   0.000001
    24  H    0.000000  -0.000000   0.000000  -0.000081  -0.000067  -0.000034
    25  C   -0.000055  -0.000005   0.000001  -0.008816   0.000257  -0.000420
    26  C   -0.000354   0.000049  -0.000006   0.012430  -0.002230  -0.004544
    27  H   -0.000020   0.000001  -0.000000   0.000508  -0.000136  -0.000052
    28  C    0.000000  -0.000000  -0.000000  -0.000024   0.000012  -0.000009
    29  O   -0.000000   0.000000  -0.000000   0.000009  -0.000000  -0.000000
    30  N   -0.000000  -0.000000   0.000000  -0.000000   0.000000  -0.000000
    31  H   -0.000000   0.000000   0.000000  -0.000000   0.000000  -0.000000
    32  H    0.000000   0.000000  -0.000000   0.000000   0.000000   0.000000
    33  C    0.000001  -0.000000   0.000000   0.000125  -0.000372  -0.014564
    34  C    0.000000  -0.000000   0.000000   0.001353   0.000378   0.009335
    35  C    0.000000   0.000000  -0.000000  -0.000305   0.000205   0.001094
    36  C   -0.000000   0.000000   0.000000   0.000005   0.000000   0.000000
    37  C   -0.000000   0.000000   0.000000   0.000050   0.000020   0.000042
    38  O   -0.000000   0.000000   0.000000   0.004865  -0.000084  -0.043253
    39  S   -0.000000  -0.000000  -0.000000  -0.000093   0.000022   0.000957
    40  H   -0.000000   0.000000  -0.000000   0.000122   0.000036   0.000151
    41  H   -0.000003   0.000000  -0.000000  -0.000227   0.000366   0.008283
    42  H    0.000000  -0.000000   0.000000   0.000000  -0.000000  -0.000000
    43  H    0.000000  -0.000000  -0.000000   0.000000  -0.000000   0.000000
    44  H    0.000000  -0.000000  -0.000000   0.000000  -0.000000   0.000000
    45  H   -0.000000   0.000000   0.000000  -0.000007   0.000004   0.000023
    46  H    0.000000  -0.000000  -0.000000  -0.000006  -0.000000   0.000014
    47  H    0.378350  -0.023577  -0.024686   0.000832  -0.000210   0.000026
    48  H    0.000000   0.000000  -0.000000  -0.000048   0.000002   0.000201
               7          8          9         10         11         12
     1  C   -0.000057   0.014241   0.011630   0.006806  -0.001479  -0.004509
     2  H   -0.000004   0.012838   0.000125  -0.000370  -0.000119  -0.000066
     3  H    0.000004  -0.009413  -0.002349   0.000288   0.000472   0.000571
     4  C   -0.035257  -0.048997  -0.099768  -0.041918   0.015721  -0.016233
     5  H   -0.012723  -0.068535   0.001495   0.001412  -0.000742  -0.103111
     6  O    0.271381  -0.058391   0.004406  -0.010274  -0.000493  -0.039692
     7  H    0.349977   0.010343  -0.000369  -0.000771   0.000190   0.008888
     8  C    0.010343   5.481510   0.517761   0.305292  -0.045719   0.001541
     9  H   -0.000369   0.517761   0.571488  -0.052932  -0.007575   0.012672
    10  O   -0.000771   0.305292  -0.052932   7.979207   0.294104  -0.021642
    11  H    0.000190  -0.045719  -0.007575   0.294104   0.430131  -0.001878
    12  C    0.008888   0.001541   0.012672  -0.021642  -0.001878   5.556565
    13  H   -0.000938   0.012853   0.002448   0.015053  -0.001075   0.428920
    14  C   -0.000639   0.006067  -0.128781  -0.063718   0.002961  -0.093714
    15  H    0.000068  -0.041699   0.010075   0.000239   0.003056   0.000201
    16  O    0.000148  -0.030392   0.005244   0.008325  -0.000018   0.246762
    17  N    0.004892   0.001027  -0.000594  -0.000070   0.000010   0.218938
    18  C   -0.001378  -0.002785  -0.000145  -0.000189   0.000010  -0.086551
    19  H    0.000055   0.000774  -0.000044   0.000004   0.000001   0.008600
    20  C   -0.001534  -0.001518   0.000059   0.000012  -0.000002   0.015084
    21  H   -0.000012  -0.000011   0.000001   0.000000  -0.000000   0.000368
    22  C    0.000517   0.000043  -0.000009  -0.000004   0.000000  -0.015588
    23  H   -0.000004   0.000000  -0.000000  -0.000000   0.000000  -0.000031
    24  H    0.000335   0.000016  -0.000000  -0.000000   0.000000   0.000881
    25  C    0.000643  -0.000358   0.000006  -0.000014  -0.000001  -0.003674
    26  C   -0.001858  -0.003866  -0.000116  -0.000456  -0.000039  -0.072258
    27  H    0.000081  -0.000138  -0.000011  -0.000137   0.000005  -0.002196
    28  C    0.000010   0.000005   0.000000   0.000000  -0.000000   0.000628
    29  O    0.000004   0.000000   0.000000  -0.000000  -0.000000   0.000529
    30  N    0.000000  -0.000000  -0.000000  -0.000000  -0.000000   0.000031
    31  H   -0.000000  -0.000000   0.000000  -0.000000  -0.000000  -0.000004
    32  H   -0.000000  -0.000000   0.000000   0.000000  -0.000000  -0.000009
    33  C    0.002571   0.000577   0.000017  -0.000611   0.000039   0.000075
    34  C   -0.013422   0.000042  -0.000015   0.000019   0.000000  -0.002050
    35  C    0.001802  -0.000165  -0.000000   0.000001  -0.000000  -0.000605
    36  C   -0.000015  -0.000000  -0.000000  -0.000000  -0.000000  -0.000024
    37  C   -0.000654   0.000005   0.000000   0.000000  -0.000000  -0.000535
    38  O    0.063988  -0.000068  -0.000004  -0.000002  -0.000000   0.001667
    39  S   -0.001224  -0.000073  -0.000002  -0.000004  -0.000001   0.000213
    40  H    0.000086  -0.000052  -0.000000   0.000011  -0.000001   0.000017
    41  H   -0.011620  -0.000747   0.000014   0.001929  -0.000129  -0.000243
    42  H    0.000001   0.000000  -0.000000   0.000000   0.000000   0.000003
    43  H    0.000000   0.000000   0.000000   0.000000   0.000000   0.000001
    44  H    0.000000  -0.000000  -0.000000   0.000000   0.000000   0.000000
    45  H   -0.000198  -0.000000   0.000000  -0.000000  -0.000000  -0.000044
    46  H   -0.000079  -0.000001  -0.000000  -0.000000   0.000000   0.000108
    47  H    0.000025  -0.013988   0.000413   0.000231   0.000156  -0.001024
    48  H    0.000362  -0.000021   0.000002   0.000004  -0.000002   0.000011
              13         14         15         16         17         18
     1  C    0.000155   0.166005  -0.068300  -0.027901   0.000066  -0.001139
     2  H    0.000013  -0.050483  -0.007278   0.000801  -0.000051  -0.000001
     3  H    0.000096  -0.041740  -0.003498   0.005003  -0.000036   0.000029
     4  C   -0.082093   0.128242  -0.007217  -0.056013   0.011321  -0.010690
     5  H    0.006876   0.014205   0.000013   0.002404  -0.011410  -0.002833
     6  O    0.009776   0.006615   0.000111   0.005114  -0.003409   0.003276
     7  H   -0.000938  -0.000639   0.000068   0.000148   0.004892  -0.001378
     8  C    0.012853   0.006067  -0.041699  -0.030392   0.001027  -0.002785
     9  H    0.002448  -0.128781   0.010075   0.005244  -0.000594  -0.000145
    10  O    0.015053  -0.063718   0.000239   0.008325  -0.000070  -0.000189
    11  H   -0.001075   0.002961   0.003056  -0.000018   0.000010   0.000010
    12  C    0.428920  -0.093714   0.000201   0.246762   0.218938  -0.086551
    13  H    0.497696  -0.010061   0.005556  -0.029190  -0.046798   0.012244
    14  C   -0.010061   5.436483   0.417929   0.184040   0.011024  -0.000239
    15  H    0.005556   0.417929   0.597921  -0.036637  -0.000954   0.000371
    16  O   -0.029190   0.184040  -0.036637   8.069469  -0.072704   0.018830
    17  N   -0.046798   0.011024  -0.000954  -0.072704   6.304998   0.338788
    18  C    0.012244  -0.000239   0.000371   0.018830   0.338788   5.081557
    19  H    0.000970  -0.001837   0.000066   0.004806  -0.041031   0.413524
    20  C    0.001505   0.000317   0.000027  -0.001242  -0.031588   0.368780
    21  H    0.000016  -0.000005  -0.000000  -0.000058   0.003602  -0.031043
    22  C   -0.001127   0.000039  -0.000007   0.001260  -0.048220   0.057632
    23  H   -0.000018   0.000000  -0.000000   0.000003  -0.001128   0.004036
    24  H    0.000033   0.000001  -0.000000   0.000009   0.007197   0.010332
    25  C    0.010761   0.000028   0.000040  -0.003554  -0.004615  -0.009591
    26  C   -0.021535   0.000574  -0.000475   0.004332   0.344000  -0.167872
    27  H   -0.001534   0.000087  -0.000024   0.000780  -0.030512   0.008246
[...]
      5        1           0.004992010    0.005030993   -0.000450231
      6        8           0.002238701   -0.007969171   -0.013505479
      7        1          -0.009040058    0.005615027    0.003556265
      8        6          -0.011983332   -0.004561116   -0.006904793
      9        1           0.000565782    0.005482483   -0.002719462
     10        8           0.006624233   -0.001845892   -0.001668177
     11        1          -0.001418992    0.001723719    0.000585242
     12        6           0.012464458   -0.006350749    0.009497185
     13        1          -0.004903752    0.000188241   -0.003474133
     14        6           0.001903761    0.000833584    0.008311381
     15        1          -0.003003867    0.002433567    0.001084176
     16        8          -0.006913722    0.003490788    0.006039149
     17        7           0.010039751   -0.003611570    0.002653461
     18        6          -0.004799686   -0.003834555    0.001503923
     19        1           0.005152944    0.001640506    0.000677987
     20        6          -0.001051135   -0.012324305    0.002967134
     21        1           0.000305895   -0.002384344    0.000611184
     22        6           0.003449071    0.013520137   -0.006403943
     23        1          -0.003275841    0.001982176    0.000028552
     24        1          -0.002132971    0.001142292    0.003372049
     25        6          -0.012461633    0.002454686   -0.004807373
     26        6          -0.000603624    0.009879765    0.003645803
     27        1           0.002370557   -0.001914443    0.002638522
     28        6          -0.018322152   -0.003634683   -0.001824865
     29        8           0.002963509    0.000644056   -0.004205411
     30        7           0.025554013   -0.002464369   -0.003884270
     31        1          -0.002860686   -0.005872115    0.008189668
     32        1          -0.002281646    0.006345086    0.007157221
     33        6          -0.002661854   -0.011298552   -0.001271283
     34        6           0.006449291   -0.024307883    0.012203524
     35        6          -0.010594807    0.001854361   -0.017726933
     36        6          -0.004315381    0.002782741   -0.002233936
     37        6           0.006306805   -0.011350615    0.009087255
     38        8           0.002098176    0.004607799   -0.007245221
     39       16           0.014398260    0.013873483    0.006521215
     40        1           0.002069981    0.000388180    0.000927122
     41        1           0.001058448    0.001437885    0.004132258
     42        1          -0.004417613    0.000087648   -0.004565460
     43        1           0.001658744    0.004668931   -0.002703901
     44        1          -0.001753144    0.002961483    0.000013004
     45        1           0.002661165   -0.004023178   -0.003912962
     46        1          -0.000233064    0.006551868   -0.001045038
     47        1           0.000637830   -0.001814772   -0.000402836
     48        1          -0.002564791    0.004161176   -0.004553947
 -------------------------------------------------------------------
 Cartesian Forces:  Max     0.025554013 RMS     0.006516701
 Leave Link  716 at Sun Apr  9 11:14:12 2023, MaxMem=  2684354560 cpu:               0.8 elap:               0.1
 (Enter /opt/gaussian/g16/l103.exe)

 GradGradGradGradGradGradGradGradGradGradGradGradGradGradGradGradGradGrad
 Berny optimization.
 Search for a local minimum.
 Step number   1 out of a maximum of    2
 All quantities printed in internal units (Hartrees-Bohrs-Radians)
 Second derivative matrix not updated -- first step.
 ITU=  0
     Eigenvalues ---    0.00042   0.00099   0.00112   0.00138   0.00170
     Eigenvalues ---    0.00290   0.00335   0.00398   0.00487   0.00543
     Eigenvalues ---    0.00646   0.00710   0.00816   0.00973   0.01018
     Eigenvalues ---    0.01090   0.01205   0.01354   0.01410   0.01576
     Eigenvalues ---    0.01739   0.02011   0.02391   0.02421   0.02616
     Eigenvalues ---    0.03035   0.03211   0.03701   0.04007   0.04237
     Eigenvalues ---    0.04458   0.04634   0.04848   0.05015   0.05156
     Eigenvalues ---    0.05292   0.05444   0.05506   0.05782   0.06042
     Eigenvalues ---    0.06129   0.06335   0.06725   0.07045   0.07113
     Eigenvalues ---    0.07170   0.07595   0.07728   0.08228   0.08419
     Eigenvalues ---    0.08655   0.08839   0.09427   0.09537   0.09870
     Eigenvalues ---    0.10987   0.11331   0.11570   0.12000   0.12117
     Eigenvalues ---    0.13011   0.13137   0.13678   0.13762   0.14018
     Eigenvalues ---    0.14251   0.14404   0.15380   0.15757   0.16472
     Eigenvalues ---    0.16721   0.17851   0.18249   0.18725   0.19430
     Eigenvalues ---    0.20808   0.21179   0.21851   0.22427   0.26543
     Eigenvalues ---    0.26738   0.27767   0.28882   0.29277   0.33131
     Eigenvalues ---    0.33530   0.34279   0.34861   0.36804   0.37669
     Eigenvalues ---    0.37669   0.37669   0.37669   0.37669   0.41796
     Eigenvalues ---    0.44182   0.48353   0.48729   0.54320   0.59987
     Eigenvalues ---    0.60582   0.60848   0.67165   0.72989   0.73454
     Eigenvalues ---    0.79559   0.82922   0.83545   0.87764   0.89585
     Eigenvalues ---    0.90331   0.91833   0.92938   0.94666   0.95264
     Eigenvalues ---    0.97652   0.98803   0.99375   1.02492   1.02945
     Eigenvalues ---    1.05753   1.07319   1.09077   1.09332   1.12292
     Eigenvalues ---    1.13156   1.17960   1.22586   1.28480   1.32327
     Eigenvalues ---    1.32852   1.34978   1.37418   1.57980   1.75149
     Eigenvalues ---    1.78644   1.91787   2.38635
 Quadratic step=4.911D+00 exceeds max=3.000D-01 adjusted using Lamda=-3.856D-02.
 Angle between NR and scaled steps=  64.63 degrees.
 Angle between quadratic step and forces=  54.96 degrees.
 Linear search not attempted -- first point.
 Variable       Old X    -DE/DX   Delta X   Delta X   Delta X     New X
                                 (Linear)    (Quad)   (Total)
    X1        6.54557  -0.00622   0.00000  -0.02333  -0.02333   6.52223
    Y1       -6.88666   0.01417   0.00000   0.03033   0.03033  -6.85632
    Z1       -1.29119  -0.00106   0.00000  -0.00568  -0.00568  -1.29687
    X2        6.70903  -0.00024   0.00000  -0.01740  -0.01740   6.69163
    Y2       -7.19151  -0.00376   0.00000  -0.01437  -0.01437  -7.20588
    Z2       -3.31500  -0.00129   0.00000  -0.00422  -0.00422  -3.31922
    X3        8.24617   0.00072   0.00000  -0.02814  -0.02814   8.21803
    Y3       -7.55924  -0.00416   0.00000  -0.01785  -0.01785  -7.57709
    Z3       -0.35901   0.00088   0.00000  -0.00976  -0.00976  -0.36877
    X4        3.04817   0.00137   0.00000  -0.00347  -0.00347   3.04470
    Y4       -2.33924  -0.00247   0.00000   0.00120   0.00120  -2.33805
    Z4        1.88883   0.00158   0.00000  -0.01003  -0.01003   1.87880
    X5        1.75367   0.00499   0.00000   0.02364   0.02364   1.77731
    Y5       -3.98900   0.00503   0.00000   0.00552   0.00552  -3.98348
    Z5        1.84092  -0.00045   0.00000  -0.02274  -0.02274   1.81818
    X6        2.55497   0.00224   0.00000  -0.04239  -0.04239   2.51258
    Y6       -0.74898  -0.00797   0.00000   0.00286   0.00286  -0.74612
    Z6        3.90879  -0.01351   0.00000  -0.04319  -0.04319   3.86561
    X7        0.81042  -0.00904   0.00000  -0.05057  -0.05057   0.75985
    Y7       -0.12487   0.00562   0.00000   0.02899   0.02899  -0.09588
    Z7        3.82260   0.00356   0.00000   0.00295   0.00295   3.82555
    X8        5.80382  -0.01198   0.00000  -0.02066  -0.02066   5.78316
    Y8       -3.32748  -0.00456   0.00000   0.01084   0.01084  -3.31663
    Z8        1.99693  -0.00690   0.00000  -0.01380  -0.01380   1.98313
    X9        5.94448   0.00057   0.00000  -0.00043  -0.00043   5.94405
    Y9       -4.99239   0.00548   0.00000   0.02749   0.02749  -4.96489
    Z9        3.24332  -0.00272   0.00000  -0.01702  -0.01702   3.22630
   X10        7.28659   0.00662   0.00000   0.01828   0.01828   7.30487
   Y10       -1.31066  -0.00185   0.00000  -0.00290  -0.00290  -1.31356
   Z10        2.85484  -0.00167   0.00000  -0.02979  -0.02979   2.82506
   X11        9.01732  -0.00142   0.00000   0.01267   0.01267   9.02999
   Y11       -1.86746   0.00172   0.00000  -0.00790  -0.00790  -1.87537
   Z11        2.95489   0.00059   0.00000  -0.01550  -0.01550   2.93939
   X12        3.10312   0.01246   0.00000   0.01303   0.01303   3.11614
   Y12       -1.11419  -0.00635   0.00000   0.00354   0.00354  -1.11065
   Z12       -0.78113   0.00950   0.00000   0.02332   0.02332  -0.75781
   X13        4.21174  -0.00490   0.00000  -0.01316  -0.01316   4.19857
   Y13        0.63118   0.00019   0.00000   0.01453   0.01453   0.64570
   Z13       -0.60893  -0.00347   0.00000  -0.02249  -0.02249  -0.63142
   X14        6.35095   0.00190   0.00000  -0.01573  -0.01573   6.33522
   Y14       -4.05547   0.00083   0.00000   0.01826   0.01826  -4.03722
   Z14       -0.81298   0.00831   0.00000   0.01369   0.01369  -0.79929
   X15        8.14772  -0.00300   0.00000  -0.03093  -0.03093   8.11679
   Y15       -3.18650   0.00243   0.00000   0.03845   0.03845  -3.14805
   Z15       -1.38063   0.00108   0.00000   0.00833   0.00833  -1.37231
   X16        4.35991  -0.00691   0.00000  -0.03177  -0.03177   4.32814
   Y16       -2.93819   0.00349   0.00000   0.00053   0.00053  -2.93766
   Z16       -2.30192   0.00604   0.00000   0.02843   0.02843  -2.27349
   X17        0.66409   0.01004   0.00000   0.01095   0.01095   0.67503
   Y17       -0.49744  -0.00361   0.00000   0.00337   0.00337  -0.49407
   Z17       -1.93538   0.00265   0.00000   0.02215   0.02215  -1.91323
   X18       -1.18811  -0.00480   0.00000   0.01099   0.01099  -1.17712
   Y18       -2.27386  -0.00383   0.00000  -0.00910  -0.00910  -2.28296
   Z18       -2.04107   0.00150   0.00000   0.01074   0.01074  -2.03033
   X19       -0.84304   0.00515   0.00000   0.06498   0.06498  -0.77806
   Y19       -4.09319   0.00164   0.00000   0.00096   0.00096  -4.09223
   Z19       -1.19111   0.00068   0.00000   0.00613   0.00613  -1.18498
   X20       -3.43695  -0.00105   0.00000   0.00353   0.00353  -3.43341
   Y20       -1.74483  -0.01232   0.00000  -0.02932  -0.02932  -1.77415
   Z20       -3.15769   0.00297   0.00000   0.00000   0.00000  -3.15768
   X21       -4.91401   0.00031   0.00000   0.01853   0.01853  -4.89548
   Y21       -3.14794  -0.00238   0.00000  -0.04686  -0.04686  -3.19480
   Z21       -3.15928   0.00061   0.00000  -0.00235  -0.00235  -3.16163
   X22       -3.85579   0.00345   0.00000  -0.01169  -0.01169  -3.86748
   Y22        0.59950   0.01352   0.00000  -0.00036  -0.00036   0.59914
   Z22       -4.23473  -0.00640   0.00000  -0.00158  -0.00158  -4.23631
   X23       -5.61432  -0.00328   0.00000  -0.01832  -0.01832  -5.63264
   Y23        0.99741   0.00198   0.00000   0.01001   0.01001   1.00743
   Z23       -5.17614   0.00003   0.00000   0.00230   0.00230  -5.17384
   X24       -5.39264  -0.00213   0.00000  -0.01369  -0.01369  -5.40633
   Y24        2.37368   0.00114   0.00000  -0.01165  -0.01165   2.36203
   Z24       -0.99309   0.00337   0.00000   0.00953   0.00953  -0.98356
   X25       -1.88785  -0.01246   0.00000  -0.03336  -0.03336  -1.92121
   Y25        2.36863   0.00245   0.00000   0.01100   0.01100   2.37964
   Z25       -4.23429  -0.00481   0.00000   0.02898   0.02898  -4.20532
   X26        0.32079  -0.00060   0.00000  -0.02064  -0.02064   0.30014
   Y26        1.77674   0.00988   0.00000   0.02377   0.02377   1.80051
   Z26       -3.02180   0.00365   0.00000   0.04523   0.04523  -2.97657
   X27        1.82138   0.00237   0.00000   0.00386   0.00386   1.82524
   Y27        3.15985  -0.00191   0.00000  -0.00039  -0.00039   3.15946
   Z27       -2.92889   0.00264   0.00000   0.04799   0.04799  -2.88090
   X28       -2.20572  -0.01832   0.00000  -0.02475  -0.02475  -2.23047
   Y28        4.96720  -0.00363   0.00000  -0.00581  -0.00581   4.96139
   Z28       -5.39275  -0.00182   0.00000   0.02955   0.02955  -5.36320
   X29       -0.95979   0.00296   0.00000   0.02578   0.02578  -0.93401
   Y29        6.73929   0.00064   0.00000  -0.01339  -0.01339   6.72590
   Z29       -4.72594  -0.00421   0.00000  -0.04279  -0.04279  -4.76873
   X30       -4.23575   0.02555   0.00000   0.07105   0.07105  -4.16470
   Y30        5.15788  -0.00246   0.00000  -0.01795  -0.01795   5.13993
   Z30       -7.12621  -0.00388   0.00000  -0.01525  -0.01525  -7.14145
   X31       -4.09208  -0.00286   0.00000   0.02229   0.02229  -4.06979
   Y31        6.78017  -0.00587   0.00000  -0.01112  -0.01112   6.76906
   Z31       -8.17122   0.00819   0.00000   0.02531   0.02531  -8.14592
   X32       -4.40347  -0.00228   0.00000   0.01091   0.01091  -4.39255
   Y32        3.62005   0.00635   0.00000  -0.01135  -0.01135   3.60870
   Z32       -8.28445   0.00716   0.00000   0.01752   0.01752  -8.26692
   X33        1.26299  -0.00266   0.00000  -0.01384  -0.01384   1.24915
   Y33        4.02029  -0.01130   0.00000  -0.02429  -0.02429   3.99600
   Z33        7.26694  -0.00127   0.00000   0.01898   0.01898   7.28592
   X34       -2.05400   0.00645   0.00000   0.04043   0.04043  -2.01358
   Y34        3.80333  -0.02431   0.00000  -0.01874  -0.01874   3.78459
   Z34        3.22085   0.01220   0.00000  -0.01585  -0.01585   3.20500
   X35       -3.49402  -0.01059   0.00000   0.00129   0.00129  -3.49272
   Y35        5.00105   0.00185   0.00000  -0.00638  -0.00638   4.99467
   Z35        1.45461  -0.01773   0.00000  -0.02744  -0.02744   1.42717
   X36       -7.41299  -0.00432   0.00000  -0.02356  -0.02356  -7.43655
   Y36        5.89298   0.00278   0.00000   0.00881   0.00881   5.90178
   Z36       -1.03100  -0.00223   0.00000  -0.00530  -0.00530  -1.03630
   X37       -5.83246   0.00631   0.00000  -0.00398  -0.00398  -5.83644
   Y37        3.94894  -0.01135   0.00000  -0.02323  -0.02323   3.92571
   Z37        0.33830   0.00909   0.00000   0.00697   0.00697   0.34528
   X38       -2.14660   0.00210   0.00000   0.05912   0.05912  -2.08747
   Y38        1.51513   0.00461   0.00000  -0.02653  -0.02653   1.48860
   Z38        3.92852  -0.00725   0.00000  -0.06896  -0.06896   3.85956
   X39        0.14730   0.01440   0.00000   0.03687   0.03687   0.18416
   Y39        5.89317   0.01387   0.00000   0.02559   0.02559   5.91876
   Z39        4.66410   0.00652   0.00000   0.03355   0.03355   4.69765
   X40       -0.37317   0.00207   0.00000  -0.00541  -0.00541  -0.37858
   Y40        3.28981   0.00039   0.00000  -0.01340  -0.01340   3.27640
   Z40        8.28445   0.00093   0.00000   0.02969   0.02969   8.31413
   X41        2.34953   0.00106   0.00000   0.02480   0.02480   2.37433
   Y41        2.43595   0.00144   0.00000  -0.00899  -0.00899   2.42696
   Z41        6.53290   0.00413   0.00000   0.06204   0.06204   6.59495
   X42       -8.11834  -0.00442   0.00000  -0.05802  -0.05802  -8.17636
   Y42        5.14078   0.00009   0.00000   0.02383   0.02383   5.16461
   Z42       -2.79967  -0.00457   0.00000  -0.01133  -0.01133  -2.81100
   X43       -6.30393   0.00166   0.00000  -0.00943  -0.00943  -6.31336
   Y43        7.55924   0.00467   0.00000   0.01255   0.01255   7.57180
   Z43       -1.45884  -0.00270   0.00000  -0.02461  -0.02461  -1.48345
   X44       -9.01732  -0.00175   0.00000  -0.01067  -0.01067  -9.02799
   Y44        6.46538   0.00296   0.00000   0.04557   0.04557   6.51095
   Z44        0.11488   0.00001   0.00000   0.00233   0.00233   0.11721
   X45       -6.95638   0.00266   0.00000   0.02059   0.02059  -6.93579
   Y45        3.06835  -0.00402   0.00000  -0.05950  -0.05950   3.00885
   Z45        1.84671  -0.00391   0.00000  -0.00761  -0.00761   1.83911
   X46       -2.99676  -0.00023   0.00000  -0.03255  -0.03255  -3.02931
   Y46        6.91801   0.00655   0.00000   0.02554   0.02554   6.94354
   Z46        1.00436  -0.00105   0.00000  -0.00234  -0.00234   1.00202
   X47        4.88705   0.00064   0.00000  -0.00942  -0.00942   4.87763
   Y47       -7.86498  -0.00181   0.00000   0.00319   0.00319  -7.86179
   Z47       -0.55976  -0.00040   0.00000  -0.01037  -0.01037  -0.57013
   X48        2.44877  -0.00256   0.00000  -0.04261  -0.04261   2.40615
   Y48        5.12288   0.00416   0.00000   0.03774   0.03774   5.16062
   Z48        8.54013  -0.00455   0.00000  -0.01373  -0.01373   8.52640
         Item               Value     Threshold  Converged?
 Maximum Force            0.025554     0.000450     NO 
 RMS     Force            0.006517     0.000300     NO 
 Maximum Displacement     0.071049     0.001800     NO 
 RMS     Displacement     0.025002     0.001200     NO 
 Predicted change in Energy=-8.471158D-03
 GradGradGradGradGradGradGradGradGradGradGradGradGradGradGradGradGradGrad

 Leave Link  103 at Sun Apr  9 11:14:12 2023, MaxMem=  2684354560 cpu:               1.6 elap:               0.1
 (Enter /opt/gaussian/g16/l9999.exe)

 Test job not archived.
 1\1\GINC-JULIO-SYS\Force\RM062X\def2TZVP\C16H24N2O5S1\JVELAZQUEZ\09-Ap
 r-2023\0\\#P M062X/Def2TZVP scf=(direct,conver=8) EmpiricalDispersion=
 GD3 NoSymm Force pop=(NBORead) Charge Prop=(Field,Read)\\Gaussian run 
 using SANDER external interface, route from template gau_job.tpl\\0,1\
 C,3.4637639003,-3.6442623668,-0.6832677922\H,3.5502648395,-3.805585211
 8,-1.7542245477\H,4.3636856091,-4.0001792586,-0.1899789757\C,1.6130202
 546,-1.2378742452,0.9995254681\H,0.9280031517,-2.1108852604,0.97417531
 56\O,1.3520316594,-0.3963415521,2.0684444212\H,0.4288573636,-0.0660790
 134,2.0228317329\C,3.071250235,-1.7608246684,1.0567284098\H,3.14568138
 1,-2.6418572473,1.7162909015\O,3.8558960062,-0.6935699329,1.5107189087
 \H,4.7717621894,-0.9882190207,1.5636596731\C,1.6420989423,-0.589601816
 ,-0.4133560269\H,2.2287553217,0.3340042796,-0.3222326578\C,3.360779066
 1,-2.1460643997,-0.4302088982\H,4.3115888755,-1.6862235238,-0.73059938
 28\O,2.3071637122,-1.554823614,-1.218123791\N,0.3514190419,-0.26323436
 94,-1.0241610159\C,-0.628718709,-1.2032733289,-1.0800890427\H,-0.44611
 62046,-2.1660223386,-0.6303094741\C,-1.8187540725,-0.9233243246,-1.670
 9766768\H,-2.6003798903,-1.6658186901,-1.6718163696\C,-2.0403947549,0.
 3172417513,-2.2409229049\H,-2.9709697204,0.5278080525,-2.7390947376\H,
 -2.8536643954,1.2560991621,-0.5255207423\C,-0.9990087169,1.2534252237,
 -2.2406912525\C,0.169752114,0.940209215,-1.5990700919\H,0.9638337009,1
 .6721195374,-1.5499039424\C,-1.1672142481,2.6285265722,-2.8537184266\O
 ,-0.5079010265,3.5662760989,-2.5008607561\N,-2.2414605659,2.7294309455
 ,-3.7710272069\H,-2.1654349866,3.5879133961,-4.3240258675\H,-2.3302139
 688,1.9156487193,-4.3839410974\C,0.6683448573,2.1274438396,3.845499125
 7\C,-1.0869322499,2.0126365684,1.7043995349\C,-1.8489543245,2.64644346
 33,0.7697470624\C,-3.9227861064,3.1184291687,-0.5455816838\C,-3.086403
 9658,2.0896905435,0.1790226152\O,-1.1359300251,0.8017707549,2.07888222
 93\S,0.0779464817,3.1185303721,2.4681348221\H,-0.1974742883,1.74089144
 ,4.3839410974\H,1.2433174956,1.2890512675,3.4570638157\H,-4.2960386985
 ,2.7203833449,-1.4815195156\H,-3.335897432,4.0001792586,-0.7719839196\
 H,-4.7717621894,3.4213297773,0.0607917595\H,-3.6811568834,1.6236991559
 ,0.9772389697\H,-1.585815142,3.6608522277,0.5314839555\H,2.5861149358,
 -4.1619690843,-0.2962121764\H,1.2958308308,2.7109111356,4.5192403724\\
 Version=ES64L-G16RevA.03\HF=-1507.8504145\RMSD=5.412e-09\RMSF=6.517e-0
 3\Dipole=0.8231669,-3.0973171,-3.3639277\Quadrupole=9.9475067,-11.0082
 816,1.0607749,-5.0163414,12.6858024,-9.3955597\PG=C01 [X(C16H24N2O5S1)
 ]\\@


 ONE OF THE BENEFITS OF A COLLEGE EDUCATION
 IS TO SHOW THE BOY ITS LITTLE AVAIL 
                                    EMERSON IN 'CULTURE'
 Job cpu time:       0 days  7 hours 21 minutes  5.9 seconds.
 Elapsed time:       0 days  0 hours 27 minutes 35.1 seconds.
 File lengths (MBytes):  RWF=    435 Int=      0 D2E=      0 Chk=     48 Scr=      1
 Normal termination of Gaussian 16 at Sun Apr  9 11:14:12 2023.
