 Entering Gaussian System, Link 0=g16
 Initial command:
 /opt/gaussian/g16/l1.exe "/opt/gaussian/scratch16/Gau-3408282.inp" -scrdir="/opt/gaussian/scratch16/"
 Entering Link 1 = /opt/gaussian/g16/l1.exe PID=   3408284.
  
 Copyright (c) 1988,1990,1992,1993,1995,1998,2003,2009,2016,
            Gaussian, Inc.  All Rights Reserved.
  
 This is part of the Gaussian(R) 16 program.  It is based on
 the Gaussian(R) 09 system (copyright 2009, Gaussian, Inc.),
 the Gaussian(R) 03 system (copyright 2003, Gaussian, Inc.),
 the Gaussian(R) 98 system (copyright 1998, Gaussian, Inc.),
 the Gaussian(R) 94 system (copyright 1995, Gaussian, Inc.),
 the Gaussian 92(TM) system (copyright 1992, Gaussian, Inc.),
 the Gaussian 90(TM) system (copyright 1990, Gaussian, Inc.),
 the Gaussian 88(TM) system (copyright 1988, Gaussian, Inc.),
 the Gaussian 86(TM) system (copyright 1986, Carnegie Mellon
 University), and the Gaussian 82(TM) system (copyright 1983,
 Carnegie Mellon University). Gaussian is a federally registered
 trademark of Gaussian, Inc.
  
 This software contains proprietary and confidential information,
 including trade secrets, belonging to Gaussian, Inc.
  
 This software is provided under written license and may be
 used, copied, transmitted, or stored only in accord with that
 written license.
  
 The following legend is applicable only to US Government
 contracts under FAR:
  
                    RESTRICTED RIGHTS LEGEND
  
 Use, reproduction and disclosure by the US Government is
 subject to restrictions as set forth in subparagraphs (a)
 and (c) of the Commercial Computer Software - Restricted
 Rights clause in FAR 52.227-19.
  
 Gaussian, Inc.
 340 Quinnipiac St., Bldg. 40, Wallingford CT 06492
  
  
 ---------------------------------------------------------------
 Warning -- This program may not be used in any manner that
 competes with the business of Gaussian, Inc. or will provide
 assistance to any competitor of Gaussian, Inc.  The licensee
 of this program is prohibited from giving any competitor of
 Gaussian, Inc. access to this program.  By using this program,
 the user acknowledges that Gaussian, Inc. is engaged in the
 business of creating and licensing software in the field of
 computational chemistry and represents and warrants to the
 licensee that it is not a competitor of Gaussian, Inc. and that
 it will not use this program in any manner prohibited above.
 ---------------------------------------------------------------
  

 Cite this work as:
 Gaussian 16, Revision A.03,
 M. J. Frisch, G. W. Trucks, H. B. Schlegel, G. E. Scuseria, 
 M. A. Robb, J. R. Cheeseman, G. Scalmani, V. Barone, 
 G. A. Petersson, H. Nakatsuji, X. Li, M. Caricato, A. V. Marenich, 
 J. Bloino, B. G. Janesko, R. Gomperts, B. Mennucci, H. P. Hratchian, 
 J. V. Ortiz, A. F. Izmaylov, J. L. Sonnenberg, D. Williams-Young, 
 F. Ding, F. Lipparini, F. Egidi, J. Goings, B. Peng, A. Petrone, 
 T. Henderson, D. Ranasinghe, V. G. Zakrzewski, J. Gao, N. Rega, 
 G. Zheng, W. Liang, M. Hada, M. Ehara, K. Toyota, R. Fukuda, 
 J. Hasegawa, M. Ishida, T. Nakajima, Y. Honda, O. Kitao, H. Nakai, 
 T. Vreven, K. Throssell, J. A. Montgomery, Jr., J. E. Peralta, 
 F. Ogliaro, M. J. Bearpark, J. J. Heyd, E. N. Brothers, K. N. Kudin, 
 V. N. Staroverov, T. A. Keith, R. Kobayashi, J. Normand, 
 K. Raghavachari, A. P. Rendell, J. C. Burant, S. S. Iyengar, 
 J. Tomasi, M. Cossi, J. M. Millam, M. Klene, C. Adamo, R. Cammi, 
 J. W. Ochterski, R. L. Martin, K. Morokuma, O. Farkas, 
 J. B. Foresman, and D. J. Fox, Gaussian, Inc., Wallingford CT, 2016.
 
 ******************************************
 Gaussian 16:  ES64L-G16RevA.03 25-Dec-2016
                 9-Apr-2023 
 ******************************************
 %chk=30.chk
 %NProcShared=16
 Will use up to   16 processors via shared memory.
 %mem=20GB
 ----------------------------------------------------------------------
 #P M062X/Def2TZVP scf=(direct,conver=8) EmpiricalDispersion=GD3 NoSymm
  Force pop=(NBORead) Charge Prop=(Field,Read)
 ----------------------------------------------------------------------
 1/10=7,18=10,28=-2,30=1,38=1,125=101/1,3;
 2/12=2,15=1,17=6,18=5,29=2,40=1/2;
 3/5=44,7=101,11=2,25=1,30=1,71=1,74=-55,124=31/1,2,3;
 4//1;
 5/5=2,6=8,38=5/2;
 6/7=2,8=2,9=2,10=2,14=2,15=1,28=1,40=2/1,2,7;
 7/7=1,16=-2,29=1,30=1/1,2,3,16;
 1/10=7,18=10,28=-2,30=1/3;
 99/12=1/99;
 Leave Link    1 at Sun Apr  9 10:47:20 2023, MaxMem=  2684354560 cpu:               1.0 elap:               0.1
 (Enter /opt/gaussian/g16/l101.exe)
 ----------------------------------------------------------------------
 Gaussian run using SANDER external interface, route from template gau_
 job.tpl
 ----------------------------------------------------------------------
 Symbolic Z-matrix:
 Charge =  0 Multiplicity = 1
 C                     3.46294  -3.64573  -0.68356 
 H                     3.54974  -3.80754  -1.75454 
 H                     4.36323  -4.00113  -0.19052 
 C                     1.61344  -1.23827   1.00161 
 H                     0.92857  -2.11131   0.97573 
 O                     1.35385  -0.39783   2.07089 
 H                     0.43049  -0.06373   2.02263 
 C                     3.07124  -1.7627    1.05688 
 H                     3.14608  -2.64454   1.71553 
 O                     3.857    -0.69639   1.51146 
 H                     4.77283  -0.99075   1.56351 
 C                     1.64044  -0.58972  -0.41133 
 H                     2.22751   0.33388  -0.32138 
 C                     3.35874  -2.14726  -0.43053 
 H                     4.30989  -1.68756  -0.73178 
 O                     2.3052   -1.55674  -1.21642 
 N                     0.3526   -0.26689  -1.02662 
 C                    -0.62562  -1.212    -1.08594 
 H                    -0.44263  -2.17155  -0.63429 
 C                    -1.80965  -0.93883  -1.6962 
 H                    -2.59447  -1.67648  -1.684 
 C                    -2.02477   0.29408  -2.27913 
 H                    -2.96773   0.51579  -2.74822 
 H                    -2.86881   1.26285  -0.49345 
 C                    -0.9942    1.24242  -2.25722 
 C                     0.16733   0.93753  -1.59887 
 H                     0.95565   1.67309  -1.54044 
 C                    -1.17056   2.62402  -2.85434 
 O                    -0.5114    3.5621   -2.4958 
 N                    -2.24402   2.72793  -3.77068 
 H                    -2.16498   3.58693  -4.32153 
 H                    -2.32567   1.91482  -4.38514 
 C                     0.66996   2.12341   3.84708 
 C                    -1.08573   2.00658   1.70455 
 C                    -1.85272   2.64709   0.7848 
 C                    -3.92499   3.12291  -0.54115 
 C                    -3.09853   2.08972   0.19512 
 O                    -1.13085   0.78978   2.07675 
 S                     0.0806    3.11114   2.4689 
 H                    -0.19553   1.73704   4.38514 
 H                     1.24434   1.28424   3.45989 
 H                    -4.30396   2.71711  -1.47412 
 H                    -3.32658   4.00113  -0.77726 
 H                    -4.77283   3.43443   0.06795 
 H                    -3.6959    1.62803   0.99453 
 H                    -1.59034   3.66965   0.54577 
 H                     2.5857   -4.16385  -0.29614 
 H                     1.29717   2.70729   4.52073 
 
 ITRead=  0  0  0  0  0  0  0  0  0  0  0  0  0  0  0  0  0  0  0  0
 ITRead=  0  0  0  0  0  0  0  0  0  0  0  0  0  0  0  0  0  0  0  0
 ITRead=  0  0  0  0  0  0  0  0
 MicOpt= -1 -1 -1 -1 -1 -1 -1 -1 -1 -1 -1 -1 -1 -1 -1 -1 -1 -1 -1 -1
 MicOpt= -1 -1 -1 -1 -1 -1 -1 -1 -1 -1 -1 -1 -1 -1 -1 -1 -1 -1 -1 -1
 MicOpt= -1 -1 -1 -1 -1 -1 -1 -1
 NAtoms=     48 NQM=       48 NQMF=       0 NMMI=      0 NMMIF=      0
                NMic=       0 NMicF=      0.
                    Isotopes and Nuclear Properties:
 (Nuclear quadrupole moments (NQMom) in fm**2, nuclear magnetic moments (NMagM)
  in nuclear magnetons)

  Atom         1           2           3           4           5           6           7           8           9          10
 IAtWgt=          12           1           1          12           1          16           1          12           1          16
 AtmWgt=  12.0000000   1.0078250   1.0078250  12.0000000   1.0078250  15.9949146   1.0078250  12.0000000   1.0078250  15.9949146
 NucSpn=           0           1           1           0           1           0           1           0           1           0
 AtZEff=  -0.0000000  -0.0000000  -0.0000000  -0.0000000  -0.0000000  -0.0000000  -0.0000000  -0.0000000  -0.0000000  -0.0000000
 NQMom=    0.0000000   0.0000000   0.0000000   0.0000000   0.0000000   0.0000000   0.0000000   0.0000000   0.0000000   0.0000000
 NMagM=    0.0000000   2.7928460   2.7928460   0.0000000   2.7928460   0.0000000   2.7928460   0.0000000   2.7928460   0.0000000
 AtZNuc=   6.0000000   1.0000000   1.0000000   6.0000000   1.0000000   8.0000000   1.0000000   6.0000000   1.0000000   8.0000000

  Atom        11          12          13          14          15          16          17          18          19          20
 IAtWgt=           1          12           1          12           1          16          14          12           1          12
 AtmWgt=   1.0078250  12.0000000   1.0078250  12.0000000   1.0078250  15.9949146  14.0030740  12.0000000   1.0078250  12.0000000
 NucSpn=           1           0           1           0           1           0           2           0           1           0
 AtZEff=  -0.0000000  -0.0000000  -0.0000000  -0.0000000  -0.0000000  -0.0000000  -0.0000000  -0.0000000  -0.0000000  -0.0000000
 NQMom=    0.0000000   0.0000000   0.0000000   0.0000000   0.0000000   0.0000000   2.0440000   0.0000000   0.0000000   0.0000000
 NMagM=    2.7928460   0.0000000   2.7928460   0.0000000   2.7928460   0.0000000   0.4037610   0.0000000   2.7928460   0.0000000
 AtZNuc=   1.0000000   6.0000000   1.0000000   6.0000000   1.0000000   8.0000000   7.0000000   6.0000000   1.0000000   6.0000000

  Atom        21          22          23          24          25          26          27          28          29          30
 IAtWgt=           1          12           1           1          12          12           1          12          16          14
 AtmWgt=   1.0078250  12.0000000   1.0078250   1.0078250  12.0000000  12.0000000   1.0078250  12.0000000  15.9949146  14.0030740
 NucSpn=           1           0           1           1           0           0           1           0           0           2
 AtZEff=  -0.0000000  -0.0000000  -0.0000000  -0.0000000  -0.0000000  -0.0000000  -0.0000000  -0.0000000  -0.0000000  -0.0000000
 NQMom=    0.0000000   0.0000000   0.0000000   0.0000000   0.0000000   0.0000000   0.0000000   0.0000000   0.0000000   2.0440000
 NMagM=    2.7928460   0.0000000   2.7928460   2.7928460   0.0000000   0.0000000   2.7928460   0.0000000   0.0000000   0.4037610
 AtZNuc=   1.0000000   6.0000000   1.0000000   1.0000000   6.0000000   6.0000000   1.0000000   6.0000000   8.0000000   7.0000000

  Atom        31          32          33          34          35          36          37          38          39          40
 IAtWgt=           1           1          12          12          12          12          12          16          32           1
 AtmWgt=   1.0078250   1.0078250  12.0000000  12.0000000  12.0000000  12.0000000  12.0000000  15.9949146  31.9720718   1.0078250
 NucSpn=           1           1           0           0           0           0           0           0           0           1
 AtZEff=  -0.0000000  -0.0000000  -0.0000000  -0.0000000  -0.0000000  -0.0000000  -0.0000000  -0.0000000  -0.0000000  -0.0000000
 NQMom=    0.0000000   0.0000000   0.0000000   0.0000000   0.0000000   0.0000000   0.0000000   0.0000000   0.0000000   0.0000000
 NMagM=    2.7928460   2.7928460   0.0000000   0.0000000   0.0000000   0.0000000   0.0000000   0.0000000   0.0000000   2.7928460
 AtZNuc=   1.0000000   1.0000000   6.0000000   6.0000000   6.0000000   6.0000000   6.0000000   8.0000000  16.0000000   1.0000000

  Atom        41          42          43          44          45          46          47          48
 IAtWgt=           1           1           1           1           1           1           1           1
 AtmWgt=   1.0078250   1.0078250   1.0078250   1.0078250   1.0078250   1.0078250   1.0078250   1.0078250
 NucSpn=           1           1           1           1           1           1           1           1
 AtZEff=  -0.0000000  -0.0000000  -0.0000000  -0.0000000  -0.0000000  -0.0000000  -0.0000000  -0.0000000
 NQMom=    0.0000000   0.0000000   0.0000000   0.0000000   0.0000000   0.0000000   0.0000000   0.0000000
 NMagM=    2.7928460   2.7928460   2.7928460   2.7928460   2.7928460   2.7928460   2.7928460   2.7928460
 AtZNuc=   1.0000000   1.0000000   1.0000000   1.0000000   1.0000000   1.0000000   1.0000000   1.0000000
 Background charge distribution read from input stream:
 Leave Link  101 at Sun Apr  9 10:47:21 2023, MaxMem=  2684354560 cpu:               3.9 elap:               0.2
 (Enter /opt/gaussian/g16/l103.exe)

 GradGradGradGradGradGradGradGradGradGradGradGradGradGradGradGradGradGrad
 Berny optimization.
 Initialization pass.
 Trust Radius=3.00D-01 FncErr=1.00D-07 GrdErr=1.00D-07 EigMax=2.50D+02 EigMin=1.00D-04
 Number of steps in this run=      2 maximum allowed number of steps=      2.
 GradGradGradGradGradGradGradGradGradGradGradGradGradGradGradGradGradGrad

 Leave Link  103 at Sun Apr  9 10:47:21 2023, MaxMem=  2684354560 cpu:               0.4 elap:               0.0
 (Enter /opt/gaussian/g16/l202.exe)
 ---------------------------------------------------------------------------------------------------
                            Z-MATRIX (ANGSTROMS AND DEGREES)
   CD    Cent   Atom    N1       Length/X        N2       Alpha/Y        N3        Beta/Z          J
 ---------------------------------------------------------------------------------------------------
      1      1  C        0   3.462940         -3.645731         -0.683564
      2      2  H        0   3.549743         -3.807539         -1.754538
      3      3  H        0   4.363228         -4.001126         -0.190523
      4      4  C        0   1.613435         -1.238266          1.001609
      5      5  H        0   0.928573         -2.111311          0.975735
      6      6  O        0   1.353849         -0.397833          2.070889
      7      7  H        0   0.430489         -0.063725          2.022631
      8      8  C        0   3.071241         -1.762701          1.056878
      9      9  H        0   3.146078         -2.644538          1.715535
     10     10  O        0   3.856998         -0.696385          1.511463
     11     11  H        0   4.772834         -0.990752          1.563509
     12     12  C        0   1.640443         -0.589725         -0.411331
     13     13  H        0   2.227506          0.333879         -0.321376
     14     14  C        0   3.358738         -2.147261         -0.430534
     15     15  H        0   4.309891         -1.687559         -0.731783
     16     16  O        0   2.305198         -1.556736         -1.216422
     17     17  N        0   0.352599         -0.266889         -1.026619
     18     18  C        0  -0.625624         -1.212005         -1.085938
     19     19  H        0  -0.442627         -2.171555         -0.634286
     20     20  C        0  -1.809653         -0.938830         -1.696203
     21     21  H        0  -2.594473         -1.676481         -1.684002
     22     22  C        0  -2.024770          0.294078         -2.279130
     23     23  H        0  -2.967729          0.515787         -2.748216
     24     24  H        0  -2.868805          1.262847         -0.493454
     25     25  C        0  -0.994205          1.242423         -2.257221
     26     26  C        0   0.167332          0.937528         -1.598868
     27     27  H        0   0.955650          1.673093         -1.540445
     28     28  C        0  -1.170556          2.624024         -2.854337
     29     29  O        0  -0.511405          3.562100         -2.495805
     30     30  N        0  -2.244023          2.727928         -3.770675
     31     31  H        0  -2.164980          3.586929         -4.321532
     32     32  H        0  -2.325673          1.914815         -4.385140
     33     33  C        0   0.669962          2.123410          3.847083
     34     34  C        0  -1.085731          2.006578          1.704548
     35     35  C        0  -1.852716          2.647092          0.784800
     36     36  C        0  -3.924988          3.122909         -0.541152
     37     37  C        0  -3.098527          2.089721          0.195122
     38     38  O        0  -1.130848          0.789783          2.076749
     39     39  S        0   0.080602          3.111135          2.468900
     40     40  H        0  -0.195531          1.737039          4.385140
     41     41  H        0   1.244335          1.284241          3.459895
     42     42  H        0  -4.303956          2.717114         -1.474121
     43     43  H        0  -3.326579          4.001126         -0.777256
     44     44  H        0  -4.772834          3.434434          0.067950
     45     45  H        0  -3.695900          1.628031          0.994533
     46     46  H        0  -1.590341          3.669650          0.545774
     47     47  H        0   2.585696         -4.163848         -0.296138
     48     48  H        0   1.297171          2.707288          4.520726
 ---------------------------------------------------------------------------------------------------
                         Z-Matrix orientation:                         
 ---------------------------------------------------------------------
 Center     Atomic      Atomic             Coordinates (Angstroms)
 Number     Number       Type             X           Y           Z
 ---------------------------------------------------------------------
      1          6           0        3.462940   -3.645731   -0.683564
      2          1           0        3.549743   -3.807539   -1.754538
      3          1           0        4.363228   -4.001126   -0.190523
      4          6           0        1.613435   -1.238266    1.001609
      5          1           0        0.928573   -2.111311    0.975735
      6          8           0        1.353849   -0.397833    2.070889
      7          1           0        0.430489   -0.063725    2.022631
      8          6           0        3.071241   -1.762701    1.056878
      9          1           0        3.146078   -2.644538    1.715535
     10          8           0        3.856998   -0.696385    1.511463
     11          1           0        4.772834   -0.990752    1.563509
     12          6           0        1.640443   -0.589725   -0.411331
     13          1           0        2.227506    0.333879   -0.321376
     14          6           0        3.358738   -2.147261   -0.430534
     15          1           0        4.309891   -1.687559   -0.731783
     16          8           0        2.305198   -1.556736   -1.216422
     17          7           0        0.352599   -0.266889   -1.026619
     18          6           0       -0.625624   -1.212005   -1.085938
     19          1           0       -0.442627   -2.171555   -0.634286
     20          6           0       -1.809653   -0.938830   -1.696203
     21          1           0       -2.594473   -1.676481   -1.684002
     22          6           0       -2.024770    0.294078   -2.279130
     23          1           0       -2.967729    0.515787   -2.748216
     24          1           0       -2.868805    1.262847   -0.493454
     25          6           0       -0.994205    1.242423   -2.257221
     26          6           0        0.167332    0.937528   -1.598868
     27          1           0        0.955650    1.673093   -1.540445
     28          6           0       -1.170556    2.624024   -2.854337
     29          8           0       -0.511405    3.562100   -2.495805
     30          7           0       -2.244023    2.727928   -3.770675
     31          1           0       -2.164980    3.586929   -4.321532
     32          1           0       -2.325673    1.914815   -4.385140
     33          6           0        0.669962    2.123410    3.847083
     34          6           0       -1.085731    2.006578    1.704548
     35          6           0       -1.852716    2.647092    0.784800
     36          6           0       -3.924988    3.122909   -0.541152
     37          6           0       -3.098527    2.089721    0.195122
     38          8           0       -1.130848    0.789783    2.076749
     39         16           0        0.080602    3.111135    2.468900
     40          1           0       -0.195531    1.737039    4.385140
     41          1           0        1.244335    1.284241    3.459895
     42          1           0       -4.303956    2.717114   -1.474121
     43          1           0       -3.326579    4.001126   -0.777256
     44          1           0       -4.772834    3.434434    0.067950
     45          1           0       -3.695900    1.628031    0.994533
     46          1           0       -1.590341    3.669650    0.545774
     47          1           0        2.585696   -4.163848   -0.296138
     48          1           0        1.297171    2.707288    4.520726
 ---------------------------------------------------------------------
                    Distance matrix (angstroms):
                    1          2          3          4          5
     1  C    0.000000
     2  H    1.086600   0.000000
     3  H    1.086238   1.773521   0.000000
     4  C    3.472228   4.236366   4.076266   0.000000
     5  H    3.395693   4.147542   4.090038   1.109916   0.000000
     6  O    4.752275   5.575117   5.210957   1.384583   2.077553
     7  H    5.417566   6.165459   5.988958   1.954838   2.353016
     8  C    2.593911   3.509186   2.869807   1.550253   2.172358
     9  H    2.618867   3.681972   2.637204   2.199156   2.397700
    10  O    3.697576   4.521111   3.751579   2.363717   3.296163
    11  H    3.716730   4.521026   3.508100   3.218508   4.047156
    12  C    3.568583   3.975419   4.370352   1.554907   2.178517
    13  H    4.182675   4.577510   4.834325   2.144530   3.057560
    14  C    1.523252   2.132133   2.122127   2.433802   2.807950
    15  H    2.134032   2.473493   2.376637   3.236880   3.811626
    16  O    2.447081   2.627656   3.356040   2.345127   2.647300
    17  N    4.605267   4.825743   5.543350   2.578176   2.782635
    18  C    4.775069   4.961604   5.785293   3.061361   2.734004
    19  H    4.174815   4.457626   5.161444   2.788293   2.115653
    20  C    6.012735   6.079146   7.053311   4.368683   4.001481
    21  H    6.447563   6.503673   7.486258   5.011091   4.435666
    22  C    6.941389   6.940724   7.976062   5.133017   5.010217
    23  H    7.933128   7.883906   8.982607   6.174541   5.995884
    24  H    8.013818   8.276285   8.950055   5.346144   5.288056
    25  C    6.799749   6.811921   7.776126   4.855263   5.039505
    26  C    5.718835   5.829287   6.631688   3.686160   4.062448
    27  H    5.942276   6.067329   6.755046   3.920552   4.544624
    28  C    8.092674   8.053308   9.033896   6.126680   6.441986
    29  O    8.428076   8.447128   9.288636   6.307960   6.805344
    30  N    9.095230   8.963529  10.087290   7.306530   7.484117
    31  H    9.860004   9.691526  10.828727   8.117559   8.372637
    32  H    8.839083   8.613125   9.865829   7.380756   7.452435
    33  C    7.849234   8.651442   8.212942   4.504189   5.122927
    34  C    7.638199   8.201027   8.329163   4.278858   4.641723
    35  C    8.367313   8.791875   9.153580   5.211259   5.514928
    36  C   10.020791  10.265233  10.934777   7.216238   7.297607
    37  C    8.759015   9.098260   9.639758   5.824818   5.871590
    38  O    6.956724   7.597503   7.634017   3.577708   3.724217
    39  S    8.187398   8.817052   8.717665   4.839401   5.497503
    40  H    8.249267   9.081028   8.639764   4.855212   5.262837
    41  H    6.811394   7.644046   7.140599   3.541531   4.219067
    42  H   10.071517  10.214221  11.040944   7.535900   7.529598
    43  H   10.226474  10.450556  11.113660   7.417501   7.651221
    44  H   10.886757  11.181811  11.782274   7.968078   8.005336
    45  H    9.048622   9.465841   9.901581   6.033634   5.947166
    46  H    8.975618   9.360569   9.737963   5.878742   6.320546
    47  H    1.090000   1.784173   1.788086   3.344917   2.928587
    48  H    8.493294   9.321801   8.752108   5.296376   5.993473
                    6          7          8          9         10
     6  O    0.000000
     7  H    0.983133   0.000000
     8  C    2.416716   3.285235   0.000000
     9  H    2.895867   3.758900   1.103207   0.000000
    10  O    2.582217   3.521721   1.400389   2.083832   0.000000
    11  H    3.506914   4.463870   1.935975   2.324749   0.963388
    12  C    2.506068   2.768544   2.361926   3.318547   2.936261
    13  H    2.649832   2.980223   2.647096   3.723406   2.660073
    14  C    3.652012   4.351297   1.562989   2.213170   2.474804
    15  H    4.272769   5.027266   2.176973   2.873958   2.493931
    16  O    3.613106   4.029278   2.407725   3.238328   3.254173
    17  N    3.257945   3.057003   3.737570   4.579973   4.348234
    18  C    3.814020   3.478091   4.308334   4.911837   5.206367
    19  H    3.700188   3.502069   3.921029   4.315574   5.026643
    20  C    4.948879   4.428744   5.664040   6.253693   6.516044
    21  H    5.596730   5.048812   6.294456   6.741507   7.265883
    22  C    5.551258   4.966031   6.428734   7.164529   7.067164
    23  H    6.537163   5.885974   7.492623   8.203131   8.135793
    24  H    5.211959   4.356124   6.844094   7.505072   7.286612
    25  C    5.190022   4.696052   6.044988   6.930599   6.441748
    26  C    4.081437   3.766565   4.772516   5.717464   5.094847
    27  H    4.181989   3.998480   4.798593   5.834494   4.831810
    28  C    6.305718   5.794148   7.248020   8.202122   7.440539
    29  O    6.325736   5.869415   7.335558   8.344754   7.299029
    30  N    7.539160   6.964821   8.468947   9.381636   8.766377
    31  H    8.314056   7.766089   9.217584  10.172743   9.414607
    32  H    7.782515   7.250557   8.500963   9.377953   8.933853
    33  C    3.158992   2.858239   5.352872   5.779964   4.854232
    34  C    3.444844   2.585779   5.648659   6.288180   5.636831
    35  C    4.605177   3.754169   6.615562   7.338636   6.656404
    36  C    6.861815   5.974764   8.681596   9.399791   8.908398
    37  C    5.434159   4.520074   7.324604   7.982479   7.607527
    38  O    2.753940   1.780218   5.021241   5.497012   5.235155
    39  S    3.753989   3.225107   5.889992   6.564487   5.447483
    40  H    3.509134   3.035804   5.830721   6.123020   5.531959
    41  H    2.184194   2.131921   4.289048   4.700503   3.813827
    42  H    7.367547   6.509632   8.992676   9.717213   9.336319
    43  H    7.026320   6.203059   8.804422   9.605944   8.883053
    44  H    7.498952   6.567531   9.461379  10.118182   9.675815
    45  H    5.546407   4.576691   7.569355   8.098602   7.919368
    46  H    5.247728   4.494769   7.176490   7.979410   7.047575
    47  H    4.615531   5.180021   2.798556   2.582471   4.111803
    48  H    3.955590   3.830161   5.926750   6.318987   5.214726
                   11         12         13         14         15
    11  H    0.000000
    12  C    3.724606   0.000000
    13  H    3.433093   1.098079   0.000000
    14  C    2.704327   2.319230   2.729039   0.000000
    15  H    2.442995   2.904115   2.931036   1.098531   0.000000
    16  O    3.759998   1.423088   2.093219   1.440933   2.066588
    17  N    5.174091   1.463334   2.091307   3.595552   4.214902
    18  C    6.017630   2.444870   3.333866   4.144805   4.971005
    19  H    5.781491   2.625086   3.674877   3.806900   4.778095
    20  C    7.345580   3.698098   4.450684   5.456601   6.240154
    21  H    8.080455   4.553597   5.399053   6.101929   6.969727
    22  C    7.913537   4.207560   4.681478   6.193513   6.815358
    23  H    8.987599   5.283790   5.736994   7.244837   7.866670
    24  H    8.228271   4.875662   5.183144   7.100359   7.765010
    25  C    7.269373   3.702086   3.866829   5.811614   6.248615
    26  C    5.910122   2.431625   2.498138   4.589772   4.980333
    27  H    5.594774   2.619959   2.212971   4.647778   4.816519
    28  C    8.240622   4.919163   4.817414   7.011026   7.289052
    29  O    8.070295   5.119876   4.759326   7.200011   7.342723
    30  N    9.566524   6.114007   6.133817   8.143399   8.466710
    31  H   10.184406   6.871343   6.773295   8.861844   9.090131
    32  H    9.706573   6.147679   6.304362   8.028195   8.387779
    33  C    5.634383   5.141695   4.796292   6.615599   6.981303
    34  C    6.582299   4.318536   4.228455   6.447190   6.978187
    35  C    7.598566   4.910181   4.819004   7.184854   7.685503
    36  C    9.849056   6.691377   6.758711   8.991085   9.538878
    37  C    8.562717   5.477687   5.631730   7.748531   8.367297
    38  O    6.187663   3.971604   4.151794   5.921915   6.605053
    39  S    6.297797   4.942186   4.484193   6.841318   7.152533
    40  H    6.331437   5.638331   5.476428   7.135218   7.629522
    41  H    4.606753   4.319148   4.020923   5.601905   5.983260
    42  H   10.264676   6.884808   7.047597   9.136088   9.703122
    43  H    9.797883   6.773560   6.671161   9.089354   9.522546
    44  H   10.627264   7.586414   7.666144   9.875539  10.458025
    45  H    8.882635   5.947390   6.204287   8.127211   8.835496
    46  H    7.952680   5.431049   5.143469   7.699547   8.071219
    47  H    4.279065   3.698801   4.512037   2.163857   3.048712
    48  H    5.873743   5.942501   5.472161   7.234064   7.481980
                   16         17         18         19         20
    16  O    0.000000
    17  N    2.347845   0.000000
    18  C    2.953910   1.361500   0.000000
    19  H    2.875313   2.100967   1.076203   0.000000
    20  C    4.188555   2.361182   1.359769   2.125097   0.000000
    21  H    4.923387   3.332316   2.109451   2.444880   1.077135
    22  C    4.827368   2.745059   2.376889   3.359766   1.380631
    23  H    5.869029   3.821132   3.351699   4.250487   2.136300
    24  H    5.936585   3.605801   3.392313   4.207290   2.723195
    25  C    4.450237   2.367759   2.744444   3.820131   2.395321
    26  C    3.307278   1.346258   2.347843   3.311927   2.727391
    27  H    3.515404   2.095523   3.321264   4.190181   3.807007
    28  C    5.678237   3.744052   4.259026   5.334424   3.800480
    29  O    5.981016   4.191201   4.979242   6.028663   4.752176
    30  N    6.751145   4.820914   5.034888   6.089901   4.235236
    31  H    7.488757   5.660969   5.989028   7.051412   5.244149
    32  H    6.598288   4.817950   4.853031   5.857746   3.954738
    33  C    6.469664   5.437575   6.094114   6.306128   6.801016
    34  C    5.720810   3.833629   4.284598   4.831203   4.556819
    35  C    6.242220   4.078718   4.460723   5.217424   4.360742
    36  C    7.821143   5.479430   5.474858   6.337733   4.722977
    37  C    6.670033   4.353910   4.319462   5.089223   3.796107
    38  O    5.306368   3.598342   3.776903   4.073436   4.205241
    39  S    6.349759   4.868643   5.641380   6.149012   6.109285
    40  H    6.962765   5.796837   6.230132   6.366538   6.837281
    41  H    5.573555   4.830114   5.512947   5.617000   6.391732
    42  H    7.874840   5.548696   5.396182   6.286037   4.431342
    43  H    7.924620   5.640433   5.879386   6.814661   5.248685
    44  H    8.755565   6.416224   6.334050   7.118352   5.569391
    45  H    7.144524   4.905722   4.671268   5.260578   4.169744
    46  H    6.752456   4.663022   5.236766   6.068729   5.129586
    47  H    2.778963   4.550453   4.432803   3.640648   5.628501
    48  H    7.218925   6.364824   7.105820   7.307815   7.848359
                   21         22         23         24         25
    21  H    0.000000
    22  C    2.135847   0.000000
    23  H    2.465342   1.076275   0.000000
    24  H    3.183130   2.199897   2.377359   0.000000
    25  C    3.377786   1.400679   2.159600   2.573989   0.000000
    26  C    3.803663   2.383714   3.365631   3.247445   1.369510
    27  H    4.882993   3.366042   4.265087   3.986345   2.121598
    28  C    4.678842   2.547389   2.772320   3.211015   1.515410
    29  O    5.695694   3.607934   3.921386   3.853999   2.381369
    30  N    4.886290   2.862936   2.542192   3.643761   2.461567
    31  H    5.902924   3.877362   3.542830   4.533311   3.335986
    32  H    4.501756   2.674437   2.247007   3.983124   2.598646
    33  C    7.462480   6.938193   7.701637   5.666012   6.388123
    34  C    5.227188   4.436681   5.058802   2.926380   4.035830
    35  C    5.033734   3.867033   4.274098   2.140679   3.458906
    36  C    5.109846   3.825399   3.547472   2.139539   3.882089
    37  C    4.239040   3.240249   3.340301   1.100286   3.340669
    38  O    4.729472   4.474204   5.170057   3.138507   4.359685
    39  S    6.879236   5.908653   6.576203   4.570635   5.194566
    40  H    7.364886   7.059798   7.749923   5.583183   6.708464
    41  H    7.068380   6.678613   7.541395   5.705028   6.139888
    42  H    4.719117   3.422548   2.873093   2.266331   3.707076
    43  H    5.795981   4.206250   4.020081   2.790748   3.903935
    44  H    5.825465   4.787742   4.439335   2.942157   4.948673
    45  H    4.394029   3.910112   3.971837   1.741134   4.245203
    46  H    5.878886   4.423042   4.763866   2.916705   3.755475
    47  H    5.911625   6.712806   7.664998   7.696722   6.774164
    48  H    8.535864   7.943356   8.708017   6.677107   7.303204
                   26         27         28         29         30
    26  C    0.000000
    27  H    1.079776   0.000000
    28  C    2.492070   2.674197   0.000000
    29  O    2.855444   2.575521   1.201255   0.000000
    30  N    3.706334   4.040360   1.415205   2.307186   0.000000
    31  H    4.457792   4.597341   2.017109   2.463373   1.023511
    32  H    3.864386   4.349460   2.044660   3.094302   1.022441
    33  C    5.596189   5.413858   6.967578   6.610422   8.178447
    34  C    3.691286   3.848172   4.601289   4.515801   5.642699
    35  C    3.561612   3.773905   3.702592   3.660426   4.572965
    36  C    4.758333   5.188562   3.631336   3.958043   3.662168
    37  C    3.900229   4.429686   3.647156   4.012753   4.106705
    38  O    3.900931   4.268231   5.261333   5.383094   6.260027
    39  S    4.612898   4.348392   5.489947   5.020172   6.669560
    40  H    6.048078   6.036710   7.358495   7.125870   8.467320
    41  H    5.183747   5.023738   6.891751   6.613745   8.156839
    42  H    4.814032   5.362632   3.425179   4.017621   3.085060
    43  H    4.718908   4.933526   3.295316   3.327365   3.428341
    44  H    5.780835   6.205222   4.708814   4.974828   4.650707
    45  H    4.703943   5.297646   4.709900   5.105300   5.101463
    46  H    3.892736   3.849755   3.581942   3.229067   4.466081
    47  H    5.793930   6.186698   8.168783   8.609346   9.104679
    48  H    6.469777   6.158245   7.777413   7.296119   9.015975
                   31         32         33         34         35
    31  H    0.000000
    32  H    1.681021   0.000000
    33  C    8.769552   8.762810   0.000000
    34  C    6.322652   6.215318   2.772465   0.000000
    35  C    5.201483   5.242919   4.001965   1.358110   0.000000
    36  C    4.195737   4.335152   6.431887   3.788238   2.505766
    37  C    4.849052   4.648300   5.247805   2.517266   1.486751
    38  O    7.059140   6.667032   2.855794   1.273247   2.374831
    39  S    7.167913   7.362011   1.795086   1.778936   2.605618
    40  H    9.116302   9.027011   1.089893   2.837373   4.066560
    41  H    8.802068   8.642173   1.088128   3.005365   4.313377
    42  H    3.665998   3.609891   7.308047   4.578839   3.334097
    43  H    3.752700   4.286179   6.393955   3.893453   2.538838
    44  H    5.108004   5.303569   6.754602   4.279247   3.108193
    45  H    5.868692   5.558835   5.238624   2.731373   2.116554
    46  H    4.901808   5.285270   4.289343   2.088827   1.082404
    47  H    9.942196   8.819957   7.769551   7.453608   8.201027
    48  H    9.536550   9.647148   1.090000   3.755007   4.886978
                   36         37         38         39         40
    36  C    0.000000
    37  C    1.514138   0.000000
    38  O    4.483760   3.016972   0.000000
    39  S    5.010519   4.039828   2.647653   0.000000
    40  H    6.332286   5.109601   2.664729   2.374103   0.000000
    41  H    6.790507   5.492540   2.792682   2.381993   1.770401
    42  H    1.085687   2.152453   5.137304   5.909908   7.222925
    43  H    1.088626   2.156617   4.824863   4.789414   6.448247
    44  H    1.089447   2.151215   4.928845   5.424474   6.516976
    45  H    2.155336   1.099577   2.907463   4.316864   4.874493
    46  H    2.632663   2.212184   3.293729   2.608141   4.518984
    47  H    9.774757   8.465155   6.631874   8.175959   8.029325
    48  H    7.284662   6.197935   3.942730   2.419323   1.785476
                   41         42         43         44         45
    41  H    0.000000
    42  H    7.561823   0.000000
    43  H    6.799130   1.757718   0.000000
    44  H    7.234289   1.764193   1.768380   0.000000
    45  H    5.531918   2.765879   2.984496   2.298137   0.000000
    46  H    4.713562   3.514400   2.207897   3.226748   2.966980
    47  H    6.751941   9.808292  10.092239  10.583686   8.641188
    48  H    1.775730   8.204322   7.149943   7.563128   6.207220
                   46         47         48
    46  H    0.000000
    47  H    8.916939   0.000000
    48  H    5.006406   8.489699   0.000000
 Symmetry turned off by external request.
 Stoichiometry    C16H24N2O5S
 Framework group  C1[X(C16H24N2O5S)]
 Deg. of freedom   138
 Full point group                 C1      NOp   1
 Rotational constants (GHZ):           0.2809499           0.1685457           0.1247292
 Leave Link  202 at Sun Apr  9 10:47:21 2023, MaxMem=  2684354560 cpu:               0.1 elap:               0.0
 (Enter /opt/gaussian/g16/l301.exe)
 Standard basis: def2TZVP (5D, 7F)
 Ernie: Thresh=  0.10000D-02 Tol=  0.10000D-05 Strict=F.
   894 basis functions,  1434 primitive gaussians,  1014 cartesian basis functions
    95 alpha electrons       95 beta electrons
       nuclear repulsion energy      2424.8885966910 Hartrees.
 IExCor= 4336 DFT=T Ex+Corr=M062X ExCW=0 ScaHFX=  0.540000
 ScaDFX=  1.000000  1.000000  1.000000  1.000000 ScalE2=  1.000000  1.000000
 IRadAn=      5 IRanWt=     -1 IRanGd=            0 ICorTp=0 IEmpDi=131
 NAtoms=   48 NActive=   48 NUniq=   48 SFac= 1.00D+00 NAtFMM=   60 NAOKFM=F Big=F
 Integral buffers will be    131072 words long.
 Raffenetti 2 integral format.
 Two-electron integral symmetry is turned off.
 R6Disp:  Grimme-D3 Dispersion energy=       -0.0042096297 Hartrees.
 Nuclear repulsion after empirical dispersion term =     2424.8843870613 Hartrees.
 Leave Link  301 at Sun Apr  9 10:47:21 2023, MaxMem=  2684354560 cpu:               0.9 elap:               0.1
 (Enter /opt/gaussian/g16/l302.exe)
 NPDir=0 NMtPBC=     1 NCelOv=     1 NCel=       1 NClECP=     1 NCelD=      1
         NCelK=      1 NCelE2=     1 NClLst=     1 CellRange=     0.0.
 One-electron integrals computed using PRISM.
   1 Symmetry operations used in ECPInt.
 ECPInt:  NShTT=   65703 NPrTT=  200010 LenC2=   55951 LenP2D=  118344.
 LDataN:  DoStor=T MaxTD1= 6 Len=  172
 NBasis=   894 RedAO= T EigKep=  2.20D-05  NBF=   894
 NBsUse=   894 1.00D-06 EigRej= -1.00D+00 NBFU=   894
 Precomputing XC quadrature grid using
 IXCGrd= 4 IRadAn=           5 IRanWt=          -1 IRanGd=           0 AccXCQ= 0.00D+00.
 Generated NRdTot=       0 NPtTot=           0 NUsed=           0 NTot=          32
 NSgBfM=  1001  1001  1001  1001  1001 MxSgAt=    48 MxSgA2=    48.
 Leave Link  302 at Sun Apr  9 10:47:23 2023, MaxMem=  2684354560 cpu:              37.3 elap:               2.3
 (Enter /opt/gaussian/g16/l303.exe)
 DipDrv:  MaxL=1.
 Leave Link  303 at Sun Apr  9 10:47:23 2023, MaxMem=  2684354560 cpu:               4.6 elap:               0.3
 (Enter /opt/gaussian/g16/l401.exe)
 ExpMin= 9.52D-02 ExpMax= 6.07D+04 ExpMxC= 2.07D+03 IAcc=3 IRadAn=         5 AccDes= 0.00D+00
 Harris functional with IExCor= 1009 and IRadAn=       5 diagonalized for initial guess.
 HarFok:  IExCor= 1009 AccDes= 0.00D+00 IRadAn=         5 IDoV= 1 UseB2=F ITyADJ=14
 ICtDFT=  3500011 ScaDFX=  1.000000  1.000000  1.000000  1.000000
 FoFCou: FMM=F IPFlag=           0 FMFlag=      100000 FMFlg1=           0
         NFxFlg=           0 DoJE=T BraDBF=F KetDBF=T FulRan=T
         wScrn=  0.000000 ICntrl=       500 IOpCl=  0 I1Cent=   200000004 NGrid=           0
         NMat0=    1 NMatS0=      1 NMatT0=    0 NMatD0=    1 NMtDS0=    0 NMtDT0=    0
 Symmetry not used in FoFCou.
 Harris En= -1507.23921978257    
 JPrj=0 DoOrth=F DoCkMO=F.
 Leave Link  401 at Sun Apr  9 10:47:32 2023, MaxMem=  2684354560 cpu:             137.4 elap:               8.6
 (Enter /opt/gaussian/g16/l502.exe)
 Two-electron integral symmetry not used.
 Closed shell SCF:
 Using DIIS extrapolation, IDIIS=  1040.
 NGot=  2684354560 LenX=  2682275214 LenY=  2681246004
 Requested convergence on RMS density matrix=1.00D-08 within 128 cycles.
 Requested convergence on MAX density matrix=1.00D-06.
 Requested convergence on             energy=1.00D-06.
 No special actions if energy rises.
 Fock matrices will be formed incrementally for  20 cycles.
 Integral accuracy reduced to 1.0D-05 until final iterations.

 Cycle   1  Pass 0  IDiag  1:
 FoFJK:  IHMeth= 1 ICntrl=       0 DoSepK=F KAlg= 0 I1Cent=           0 FoldK=F
 IRaf= 780000000 NMat=       1 IRICut=       1 DoRegI=T DoRafI=F ISym2E= 0 IDoP0=0 IntGTp=1.
 FoFCou: FMM=F IPFlag=           0 FMFlag=      100000 FMFlg1=           0
         NFxFlg=           0 DoJE=F BraDBF=F KetDBF=F FulRan=T
         wScrn=  0.000000 ICntrl=         0 IOpCl=  0 I1Cent=           0 NGrid=           0
         NMat0=    1 NMatS0=      1 NMatT0=    0 NMatD0=    1 NMtDS0=    0 NMtDT0=    0
 Symmetry not used in FoFCou.
 E= -1507.05917364660    
 DIIS: error= 1.64D-02 at cycle   1 NSaved=   1.
 NSaved= 1 IEnMin= 1 EnMin= -1507.05917364660     IErMin= 1 ErrMin= 1.64D-02
 ErrMax= 1.64D-02  0.00D+00 EMaxC= 1.00D-01 BMatC= 1.03D+00 BMatP= 1.03D+00
 IDIUse=3 WtCom= 8.36D-01 WtEn= 1.64D-01
 Coeff-Com:  0.100D+01
 Coeff-En:   0.100D+01
 Coeff:      0.100D+01
 Gap=     0.064 Goal=   None    Shift=    0.000
 GapD=    0.064 DampG=0.500 DampE=0.500 DampFc=0.2500 IDamp=-1.
 Damping current iteration by 2.50D-01
 RMSDP=4.07D-03 MaxDP=9.33D-01              OVMax= 9.26D-01

 Cycle   2  Pass 0  IDiag  1:
 RMSU=  1.02D-03    CP:  1.00D+00
 E= -1507.31641152857     Delta-E=       -0.257237881967 Rises=F Damp=T
 DIIS: error= 8.73D-03 at cycle   2 NSaved=   2.
 NSaved= 2 IEnMin= 2 EnMin= -1507.31641152857     IErMin= 2 ErrMin= 8.73D-03
 ErrMax= 8.73D-03  0.00D+00 EMaxC= 1.00D-01 BMatC= 3.09D-01 BMatP= 1.03D+00
 IDIUse=3 WtCom= 9.13D-01 WtEn= 8.73D-02
 Coeff-Com: -0.767D+00 0.177D+01
 Coeff-En:   0.000D+00 0.100D+01
 Coeff:     -0.700D+00 0.170D+01
 Gap=     0.396 Goal=   None    Shift=    0.000
 RMSDP=1.27D-03 MaxDP=6.61D-02 DE=-2.57D-01 OVMax= 8.20D-01

 Cycle   3  Pass 0  IDiag  1:
 RMSU=  1.26D-03    CP:  9.94D-01  1.08D+00
 E= -1507.63861439955     Delta-E=       -0.322202870983 Rises=F Damp=F
 DIIS: error= 9.40D-03 at cycle   3 NSaved=   3.
 NSaved= 3 IEnMin= 3 EnMin= -1507.63861439955     IErMin= 2 ErrMin= 8.73D-03
 ErrMax= 9.40D-03  0.00D+00 EMaxC= 1.00D-01 BMatC= 1.87D-01 BMatP= 3.09D-01
 IDIUse=3 WtCom= 9.06D-01 WtEn= 9.40D-02
 Coeff-Com: -0.558D+00 0.107D+01 0.487D+00
 Coeff-En:   0.000D+00 0.000D+00 0.100D+01
 Coeff:     -0.506D+00 0.970D+00 0.536D+00
 Gap=     0.071 Goal=   None    Shift=    0.000
 RMSDP=7.79D-04 MaxDP=4.07D-02 DE=-3.22D-01 OVMax= 2.81D-01

 Cycle   4  Pass 0  IDiag  1:
 RMSU=  6.70D-04    CP:  9.96D-01  1.34D+00  7.58D-01
 E= -1507.84306410589     Delta-E=       -0.204449706338 Rises=F Damp=F
 DIIS: error= 1.50D-03 at cycle   4 NSaved=   4.
 NSaved= 4 IEnMin= 4 EnMin= -1507.84306410589     IErMin= 4 ErrMin= 1.50D-03
 ErrMax= 1.50D-03  0.00D+00 EMaxC= 1.00D-01 BMatC= 7.94D-03 BMatP= 1.87D-01
 IDIUse=3 WtCom= 9.85D-01 WtEn= 1.50D-02
 Coeff-Com: -0.186D+00 0.292D+00 0.180D+00 0.714D+00
 Coeff-En:   0.000D+00 0.000D+00 0.000D+00 0.100D+01
 Coeff:     -0.183D+00 0.288D+00 0.177D+00 0.718D+00
 Gap=     0.093 Goal=   None    Shift=    0.000
 RMSDP=2.01D-04 MaxDP=1.88D-02 DE=-2.04D-01 OVMax= 1.68D-02

 Cycle   5  Pass 0  IDiag  1:
 RMSU=  1.85D-04    CP:  9.97D-01  1.41D+00  7.71D-01  1.02D+00
 E= -1507.84862208463     Delta-E=       -0.005557978744 Rises=F Damp=F
 DIIS: error= 1.04D-03 at cycle   5 NSaved=   5.
 NSaved= 5 IEnMin= 5 EnMin= -1507.84862208463     IErMin= 5 ErrMin= 1.04D-03
 ErrMax= 1.04D-03  0.00D+00 EMaxC= 1.00D-01 BMatC= 1.58D-03 BMatP= 7.94D-03
 IDIUse=3 WtCom= 9.90D-01 WtEn= 1.04D-02
 Coeff-Com: -0.591D-01 0.825D-01 0.293D-01 0.322D+00 0.625D+00
 Coeff-En:   0.000D+00 0.000D+00 0.000D+00 0.475D-01 0.953D+00
 Coeff:     -0.585D-01 0.816D-01 0.290D-01 0.320D+00 0.628D+00
 Gap=     0.097 Goal=   None    Shift=    0.000
 RMSDP=8.99D-05 MaxDP=5.37D-03 DE=-5.56D-03 OVMax= 2.47D-02

 Cycle   6  Pass 0  IDiag  1:
 RMSU=  7.62D-05    CP:  9.97D-01  1.42D+00  7.52D-01  1.08D+00  1.05D+00
 E= -1507.85019199328     Delta-E=       -0.001569908648 Rises=F Damp=F
 DIIS: error= 2.48D-04 at cycle   6 NSaved=   6.
 NSaved= 6 IEnMin= 6 EnMin= -1507.85019199328     IErMin= 6 ErrMin= 2.48D-04
 ErrMax= 2.48D-04  0.00D+00 EMaxC= 1.00D-01 BMatC= 1.91D-04 BMatP= 1.58D-03
 IDIUse=3 WtCom= 9.98D-01 WtEn= 2.48D-03
 Coeff-Com: -0.893D-02 0.104D-01-0.633D-02 0.580D-01 0.305D+00 0.642D+00
 Coeff-En:   0.000D+00 0.000D+00 0.000D+00 0.000D+00 0.000D+00 0.100D+01
 Coeff:     -0.891D-02 0.104D-01-0.632D-02 0.578D-01 0.304D+00 0.643D+00
 Gap=     0.102 Goal=   None    Shift=    0.000
 RMSDP=3.62D-05 MaxDP=4.11D-03 DE=-1.57D-03 OVMax= 4.11D-03

 Cycle   7  Pass 0  IDiag  1:
 RMSU=  3.01D-05    CP:  9.97D-01  1.42D+00  7.53D-01  1.09D+00  1.14D+00
                    CP:  1.03D+00
 E= -1507.85036076149     Delta-E=       -0.000168768204 Rises=F Damp=F
 DIIS: error= 1.49D-04 at cycle   7 NSaved=   7.
 NSaved= 7 IEnMin= 7 EnMin= -1507.85036076149     IErMin= 7 ErrMin= 1.49D-04
 ErrMax= 1.49D-04  0.00D+00 EMaxC= 1.00D-01 BMatC= 2.95D-05 BMatP= 1.91D-04
 IDIUse=3 WtCom= 9.99D-01 WtEn= 1.49D-03
 Coeff-Com:  0.294D-02-0.464D-02-0.500D-02-0.137D-01 0.757D-01 0.310D+00
 Coeff-Com:  0.635D+00
 Coeff-En:   0.000D+00 0.000D+00 0.000D+00 0.000D+00 0.000D+00 0.000D+00
 Coeff-En:   0.100D+01
 Coeff:      0.293D-02-0.463D-02-0.499D-02-0.137D-01 0.756D-01 0.310D+00
 Coeff:      0.635D+00
 Gap=     0.102 Goal=   None    Shift=    0.000
 RMSDP=1.86D-05 MaxDP=1.48D-03 DE=-1.69D-04 OVMax= 3.36D-03

 Cycle   8  Pass 0  IDiag  1:
 RMSU=  1.43D-05    CP:  9.96D-01  1.42D+00  7.53D-01  1.09D+00  1.17D+00
                    CP:  1.14D+00  1.13D+00
 E= -1507.85039030448     Delta-E=       -0.000029542991 Rises=F Damp=F
 DIIS: error= 4.34D-05 at cycle   8 NSaved=   8.
 NSaved= 8 IEnMin= 8 EnMin= -1507.85039030448     IErMin= 8 ErrMin= 4.34D-05
 ErrMax= 4.34D-05  0.00D+00 EMaxC= 1.00D-01 BMatC= 6.29D-06 BMatP= 2.95D-05
 IDIUse=1 WtCom= 1.00D+00 WtEn= 0.00D+00
 Coeff-Com:  0.231D-02-0.314D-02 0.577D-03-0.111D-01-0.273D-02 0.249D-01
 Coeff-Com:  0.302D+00 0.687D+00
 Coeff:      0.231D-02-0.314D-02 0.577D-03-0.111D-01-0.273D-02 0.249D-01
 Coeff:      0.302D+00 0.687D+00
 Gap=     0.102 Goal=   None    Shift=    0.000
 RMSDP=1.59D-05 MaxDP=1.25D-03 DE=-2.95D-05 OVMax= 9.85D-04

 Cycle   9  Pass 0  IDiag  1:
 RMSU=  1.06D-05    CP:  9.96D-01  1.41D+00  7.53D-01  1.09D+00  1.17D+00
                    CP:  1.20D+00  1.36D+00  1.43D+00
 E= -1507.85040290319     Delta-E=       -0.000012598710 Rises=F Damp=F
 DIIS: error= 1.82D-05 at cycle   9 NSaved=   9.
 NSaved= 9 IEnMin= 9 EnMin= -1507.85040290319     IErMin= 9 ErrMin= 1.82D-05
 ErrMax= 1.82D-05  0.00D+00 EMaxC= 1.00D-01 BMatC= 7.24D-07 BMatP= 6.29D-06
 IDIUse=1 WtCom= 1.00D+00 WtEn= 0.00D+00
 Coeff-Com:  0.595D-03-0.794D-03 0.109D-02-0.156D-02-0.626D-02-0.380D-01
 Coeff-Com:  0.230D-01 0.221D+00 0.801D+00
 Coeff:      0.595D-03-0.794D-03 0.109D-02-0.156D-02-0.626D-02-0.380D-01
 Coeff:      0.230D-01 0.221D+00 0.801D+00
 Gap=     0.102 Goal=   None    Shift=    0.000
 RMSDP=2.23D-05 MaxDP=2.04D-03 DE=-1.26D-05 OVMax= 4.71D-04

 Cycle  10  Pass 0  IDiag  1:
 RMSU=  1.09D-05    CP:  9.96D-01  1.41D+00  7.55D-01  1.10D+00  1.17D+00
                    CP:  1.25D+00  1.63D+00  2.25D+00  2.16D+00
 E= -1507.85040923670     Delta-E=       -0.000006333508 Rises=F Damp=F
 DIIS: error= 3.07D-05 at cycle  10 NSaved=  10.
 NSaved=10 IEnMin=10 EnMin= -1507.85040923670     IErMin= 9 ErrMin= 1.82D-05
 ErrMax= 3.07D-05  0.00D+00 EMaxC= 1.00D-01 BMatC= 6.16D-07 BMatP= 7.24D-07
 IDIUse=1 WtCom= 1.00D+00 WtEn= 0.00D+00
 Coeff-Com:  0.497D-03-0.669D-03 0.927D-03-0.119D-02-0.480D-02-0.322D-01
 Coeff-Com:  0.169D-01 0.176D+00 0.672D+00 0.173D+00
 Coeff:      0.497D-03-0.669D-03 0.927D-03-0.119D-02-0.480D-02-0.322D-01
 Coeff:      0.169D-01 0.176D+00 0.672D+00 0.173D+00
 Gap=     0.102 Goal=   None    Shift=    0.000
 RMSDP=6.97D-06 MaxDP=6.39D-04 DE=-6.33D-06 OVMax= 3.10D-05

 Initial convergence to 1.0D-05 achieved.  Increase integral accuracy.
 Cycle  11  Pass 1  IDiag  1:
 E= -1507.85025279834     Delta-E=        0.000156438354 Rises=F Damp=F
 DIIS: error= 3.07D-04 at cycle   1 NSaved=   1.
 NSaved= 1 IEnMin= 1 EnMin= -1507.85025279834     IErMin= 1 ErrMin= 3.07D-04
 ErrMax= 3.07D-04  0.00D+00 EMaxC= 1.00D-01 BMatC= 8.33D-05 BMatP= 8.33D-05
 IDIUse=3 WtCom= 9.97D-01 WtEn= 3.07D-03
 Coeff-Com:  0.100D+01
 Coeff-En:   0.100D+01
 Coeff:      0.100D+01
 Gap=     0.102 Goal=   None    Shift=    0.000
 RMSDP=6.97D-06 MaxDP=6.39D-04 DE= 1.56D-04 OVMax= 8.23D-04

 Cycle  12  Pass 1  IDiag  1:
 RMSU=  4.81D-04    CP:  9.94D-01
 E= -1507.85030594816     Delta-E=       -0.000053149823 Rises=F Damp=F
 DIIS: error= 8.44D-06 at cycle   2 NSaved=   2.
 NSaved= 2 IEnMin= 2 EnMin= -1507.85030594816     IErMin= 2 ErrMin= 8.44D-06
 ErrMax= 8.44D-06  0.00D+00 EMaxC= 1.00D-01 BMatC= 1.58D-07 BMatP= 8.33D-05
 IDIUse=1 WtCom= 1.00D+00 WtEn= 0.00D+00
 Coeff-Com: -0.146D-01 0.101D+01
 Coeff:     -0.146D-01 0.101D+01
 Gap=     0.102 Goal=   None    Shift=    0.000
 RMSDP=1.76D-05 MaxDP=1.18D-03 DE=-5.31D-05 OVMax= 8.66D-04

 Cycle  13  Pass 1  IDiag  1:
 RMSU=  6.66D-06    CP:  9.94D-01  1.03D+00
 E= -1507.85030572662     Delta-E=        0.000000221547 Rises=F Damp=F
 DIIS: error= 1.57D-05 at cycle   3 NSaved=   3.
 NSaved= 3 IEnMin= 2 EnMin= -1507.85030594816     IErMin= 2 ErrMin= 8.44D-06
 ErrMax= 1.57D-05  0.00D+00 EMaxC= 1.00D-01 BMatC= 4.13D-07 BMatP= 1.58D-07
 IDIUse=1 WtCom= 1.00D+00 WtEn= 0.00D+00
 Coeff-Com: -0.110D-01 0.651D+00 0.360D+00
 Coeff:     -0.110D-01 0.651D+00 0.360D+00
 Gap=     0.102 Goal=   None    Shift=    0.000
 RMSDP=1.09D-06 MaxDP=9.64D-05 DE= 2.22D-07 OVMax= 5.02D-04

 Cycle  14  Pass 1  IDiag  1:
 RMSU=  1.05D-06    CP:  9.94D-01  1.03D+00  9.79D-01
 E= -1507.85030617047     Delta-E=       -0.000000443850 Rises=F Damp=F
 DIIS: error= 1.70D-06 at cycle   4 NSaved=   4.
 NSaved= 4 IEnMin= 4 EnMin= -1507.85030617047     IErMin= 4 ErrMin= 1.70D-06
 ErrMax= 1.70D-06  0.00D+00 EMaxC= 1.00D-01 BMatC= 3.30D-09 BMatP= 1.58D-07
 IDIUse=1 WtCom= 1.00D+00 WtEn= 0.00D+00
 Coeff-Com: -0.235D-02 0.126D+00 0.820D-01 0.794D+00
 Coeff:     -0.235D-02 0.126D+00 0.820D-01 0.794D+00
 Gap=     0.102 Goal=   None    Shift=    0.000
 RMSDP=4.23D-07 MaxDP=2.09D-05 DE=-4.44D-07 OVMax= 1.02D-04

 Cycle  15  Pass 1  IDiag  1:
 RMSU=  2.41D-07    CP:  9.94D-01  1.03D+00  1.01D+00  1.00D+00
 E= -1507.85030617385     Delta-E=       -0.000000003380 Rises=F Damp=F
 DIIS: error= 1.44D-06 at cycle   5 NSaved=   5.
 NSaved= 5 IEnMin= 5 EnMin= -1507.85030617385     IErMin= 5 ErrMin= 1.44D-06
 ErrMax= 1.44D-06  0.00D+00 EMaxC= 1.00D-01 BMatC= 3.06D-09 BMatP= 3.30D-09
 IDIUse=1 WtCom= 1.00D+00 WtEn= 0.00D+00
 Coeff-Com:  0.628D-03-0.440D-01-0.392D-01 0.469D+00 0.614D+00
 Coeff:      0.628D-03-0.440D-01-0.392D-01 0.469D+00 0.614D+00
 Gap=     0.102 Goal=   None    Shift=    0.000
 RMSDP=1.69D-07 MaxDP=1.11D-05 DE=-3.38D-09 OVMax= 1.31D-05

 Cycle  16  Pass 1  IDiag  1:
 RMSU=  9.87D-08    CP:  9.94D-01  1.04D+00  1.03D+00  1.07D+00  1.18D+00
 E= -1507.85030617725     Delta-E=       -0.000000003405 Rises=F Damp=F
 DIIS: error= 3.31D-07 at cycle   6 NSaved=   6.
 NSaved= 6 IEnMin= 6 EnMin= -1507.85030617725     IErMin= 6 ErrMin= 3.31D-07
 ErrMax= 3.31D-07  0.00D+00 EMaxC= 1.00D-01 BMatC= 2.72D-10 BMatP= 3.06D-09
 IDIUse=1 WtCom= 1.00D+00 WtEn= 0.00D+00
 Coeff-Com:  0.403D-03-0.248D-01-0.334D-01 0.107D+00 0.160D+00 0.791D+00
 Coeff:      0.403D-03-0.248D-01-0.334D-01 0.107D+00 0.160D+00 0.791D+00
 Gap=     0.102 Goal=   None    Shift=    0.000
 RMSDP=5.96D-08 MaxDP=3.71D-06 DE=-3.40D-09 OVMax= 1.29D-05

 Cycle  17  Pass 1  IDiag  1:
 RMSU=  3.43D-08    CP:  9.94D-01  1.04D+00  1.03D+00  1.09D+00  1.35D+00
                    CP:  1.18D+00
 E= -1507.85030617765     Delta-E=       -0.000000000393 Rises=F Damp=F
 DIIS: error= 2.32D-07 at cycle   7 NSaved=   7.
 NSaved= 7 IEnMin= 7 EnMin= -1507.85030617765     IErMin= 7 ErrMin= 2.32D-07
 ErrMax= 2.32D-07  0.00D+00 EMaxC= 1.00D-01 BMatC= 8.86D-11 BMatP= 2.72D-10
 IDIUse=1 WtCom= 1.00D+00 WtEn= 0.00D+00
 Coeff-Com: -0.446D-04 0.447D-02-0.973D-02-0.903D-01-0.156D+00 0.365D+00
 Coeff-Com:  0.886D+00
 Coeff:     -0.446D-04 0.447D-02-0.973D-02-0.903D-01-0.156D+00 0.365D+00
 Coeff:      0.886D+00
 Gap=     0.102 Goal=   None    Shift=    0.000
 RMSDP=4.36D-08 MaxDP=3.25D-06 DE=-3.93D-10 OVMax= 1.29D-05

 Cycle  18  Pass 1  IDiag  1:
 RMSU=  1.80D-08    CP:  9.94D-01  1.04D+00  1.02D+00  1.09D+00  1.44D+00
                    CP:  1.43D+00  1.51D+00
 E= -1507.85030617784     Delta-E=       -0.000000000198 Rises=F Damp=F
 DIIS: error= 7.08D-08 at cycle   8 NSaved=   8.
 NSaved= 8 IEnMin= 8 EnMin= -1507.85030617784     IErMin= 8 ErrMin= 7.08D-08
 ErrMax= 7.08D-08  0.00D+00 EMaxC= 1.00D-01 BMatC= 1.12D-11 BMatP= 8.86D-11
 IDIUse=1 WtCom= 1.00D+00 WtEn= 0.00D+00
 Coeff-Com: -0.673D-04 0.502D-02-0.263D-02-0.542D-01-0.101D+00 0.847D-01
 Coeff-Com:  0.432D+00 0.636D+00
 Coeff:     -0.673D-04 0.502D-02-0.263D-02-0.542D-01-0.101D+00 0.847D-01
 Coeff:      0.432D+00 0.636D+00
 Gap=     0.102 Goal=   None    Shift=    0.000
 RMSDP=1.28D-08 MaxDP=1.45D-06 DE=-1.98D-10 OVMax= 2.98D-06

 Cycle  19  Pass 1  IDiag  1:
 RMSU=  5.18D-09    CP:  9.94D-01  1.04D+00  1.02D+00  1.10D+00  1.46D+00
                    CP:  1.46D+00  1.74D+00  1.21D+00
 E= -1507.85030617780     Delta-E=        0.000000000049 Rises=F Damp=F
 DIIS: error= 2.47D-08 at cycle   9 NSaved=   9.
 NSaved= 9 IEnMin= 8 EnMin= -1507.85030617784     IErMin= 9 ErrMin= 2.47D-08
 ErrMax= 2.47D-08  0.00D+00 EMaxC= 1.00D-01 BMatC= 1.51D-12 BMatP= 1.12D-11
 IDIUse=1 WtCom= 1.00D+00 WtEn= 0.00D+00
 Coeff-Com: -0.251D-04 0.158D-02 0.937D-04-0.415D-02-0.164D-01-0.351D-01
 Coeff-Com:  0.258D-01 0.280D+00 0.748D+00
 Coeff:     -0.251D-04 0.158D-02 0.937D-04-0.415D-02-0.164D-01-0.351D-01
 Coeff:      0.258D-01 0.280D+00 0.748D+00
 Gap=     0.102 Goal=   None    Shift=    0.000
 RMSDP=5.90D-09 MaxDP=6.91D-07 DE= 4.87D-11 OVMax= 1.62D-06

 SCF Done:  E(RM062X) =  -1507.85030618     A.U. after   19 cycles
            NFock= 19  Conv=0.59D-08     -V/T= 2.0039
 KE= 1.502060780276D+03 PE=-8.388016143726D+03 EE= 2.953220670211D+03
 Leave Link  502 at Sun Apr  9 11:07:34 2023, MaxMem=  2684354560 cpu:           19232.6 elap:            1202.2
 (Enter /opt/gaussian/g16/l601.exe)
 Copying SCF densities to generalized density rwf, IOpCl= 0 IROHF=0.

 **********************************************************************

            Population analysis using the SCF density.

 **********************************************************************

 Alpha  occ. eigenvalues --  -89.84482 -19.66854 -19.64311 -19.63262 -19.61119
 Alpha  occ. eigenvalues --  -19.54213 -14.88062 -14.79319 -10.68319 -10.66473
 Alpha  occ. eigenvalues --  -10.64689 -10.64063 -10.61713 -10.61474 -10.61333
 Alpha  occ. eigenvalues --  -10.60689 -10.60576 -10.59412 -10.56535 -10.55266
 Alpha  occ. eigenvalues --  -10.50909 -10.50365 -10.49815 -10.47250  -8.20455
 Alpha  occ. eigenvalues --   -6.12416  -6.12194  -6.11945  -1.21711  -1.20171
 Alpha  occ. eigenvalues --   -1.17374  -1.15532  -1.13816  -1.07319  -1.03550
 Alpha  occ. eigenvalues --   -0.98238  -0.93606  -0.90048  -0.88069  -0.86115
 Alpha  occ. eigenvalues --   -0.83429  -0.81958  -0.80706  -0.77312  -0.76838
 Alpha  occ. eigenvalues --   -0.72793  -0.69905  -0.69688  -0.69006  -0.67136
 Alpha  occ. eigenvalues --   -0.64800  -0.63825  -0.63141  -0.62573  -0.61562
 Alpha  occ. eigenvalues --   -0.60010  -0.57915  -0.57341  -0.56383  -0.55936
 Alpha  occ. eigenvalues --   -0.54959  -0.54591  -0.53460  -0.52073  -0.51537
 Alpha  occ. eigenvalues --   -0.51019  -0.50079  -0.49588  -0.49245  -0.48888
 Alpha  occ. eigenvalues --   -0.48427  -0.47645  -0.47417  -0.47247  -0.45559
 Alpha  occ. eigenvalues --   -0.44788  -0.44182  -0.43351  -0.42107  -0.41452
 Alpha  occ. eigenvalues --   -0.40843  -0.39607  -0.38875  -0.38721  -0.37976
 Alpha  occ. eigenvalues --   -0.37296  -0.36686  -0.36424  -0.36210  -0.35966
 Alpha  occ. eigenvalues --   -0.34605  -0.33999  -0.26575  -0.25665  -0.18288
 Alpha virt. eigenvalues --   -0.08051  -0.04806   0.03254   0.03704   0.04382
 Alpha virt. eigenvalues --    0.05034   0.06695   0.06903   0.07965   0.08852
 Alpha virt. eigenvalues --    0.09461   0.09798   0.10544   0.10741   0.10985
 Alpha virt. eigenvalues --    0.11599   0.11752   0.12506   0.13386   0.13605
 Alpha virt. eigenvalues --    0.13755   0.14482   0.14566   0.15024   0.15592
 Alpha virt. eigenvalues --    0.16271   0.16611   0.16941   0.17242   0.17799
 Alpha virt. eigenvalues --    0.18114   0.18625   0.18880   0.19192   0.19682
 Alpha virt. eigenvalues --    0.20322   0.20366   0.20836   0.21609   0.21973
 Alpha virt. eigenvalues --    0.22637   0.22897   0.23406   0.23608   0.23748
 Alpha virt. eigenvalues --    0.24533   0.24942   0.25502   0.25985   0.26613
 Alpha virt. eigenvalues --    0.26842   0.27425   0.27626   0.27935   0.28604
 Alpha virt. eigenvalues --    0.29119   0.29471   0.29962   0.30411   0.30649
 Alpha virt. eigenvalues --    0.31606   0.31647   0.31799   0.32337   0.32813
 Alpha virt. eigenvalues --    0.33140   0.33739   0.34190   0.34763   0.35216
 Alpha virt. eigenvalues --    0.36318   0.36846   0.37000   0.37122   0.37562
 Alpha virt. eigenvalues --    0.38066   0.38852   0.39089   0.39635   0.39764
 Alpha virt. eigenvalues --    0.40197   0.40357   0.41172   0.41572   0.41624
 Alpha virt. eigenvalues --    0.42182   0.42464   0.42670   0.43543   0.43588
 Alpha virt. eigenvalues --    0.44364   0.44578   0.44664   0.45062   0.45519
 Alpha virt. eigenvalues --    0.46087   0.46360   0.46651   0.47055   0.47364
 Alpha virt. eigenvalues --    0.47548   0.47586   0.48381   0.48570   0.48766
 Alpha virt. eigenvalues --    0.49136   0.49700   0.50163   0.50321   0.50784
 Alpha virt. eigenvalues --    0.51299   0.51588   0.51853   0.52475   0.52801
 Alpha virt. eigenvalues --    0.53036   0.53529   0.53925   0.54316   0.54700
 Alpha virt. eigenvalues --    0.55012   0.55124   0.55713   0.56512   0.57045
 Alpha virt. eigenvalues --    0.57196   0.57701   0.58540   0.58636   0.59189
 Alpha virt. eigenvalues --    0.59353   0.59774   0.60530   0.60798   0.61023
 Alpha virt. eigenvalues --    0.62013   0.62477   0.62968   0.64451   0.64625
 Alpha virt. eigenvalues --    0.65566   0.65740   0.65937   0.67320   0.67748
 Alpha virt. eigenvalues --    0.67951   0.68537   0.69163   0.69632   0.70133
 Alpha virt. eigenvalues --    0.70471   0.71088   0.72043   0.72579   0.73277
 Alpha virt. eigenvalues --    0.74082   0.74645   0.75031   0.75574   0.76561
 Alpha virt. eigenvalues --    0.77399   0.77823   0.78602   0.79626   0.80581
 Alpha virt. eigenvalues --    0.80882   0.81666   0.82106   0.82438   0.83561
 Alpha virt. eigenvalues --    0.83894   0.84679   0.85098   0.85786   0.86509
 Alpha virt. eigenvalues --    0.86714   0.87431   0.88364   0.89175   0.89470
 Alpha virt. eigenvalues --    0.90268   0.90888   0.91110   0.92069   0.92450
 Alpha virt. eigenvalues --    0.92861   0.93938   0.94402   0.95016   0.95243
 Alpha virt. eigenvalues --    0.96032   0.97352   0.98014   0.98467   0.98841
 Alpha virt. eigenvalues --    0.99595   1.00629   1.01098   1.02348   1.03228
 Alpha virt. eigenvalues --    1.03637   1.03939   1.04525   1.04943   1.05852
 Alpha virt. eigenvalues --    1.07446   1.07623   1.07954   1.08571   1.09206
 Alpha virt. eigenvalues --    1.09678   1.10593   1.11682   1.12219   1.12962
 Alpha virt. eigenvalues --    1.13305   1.13615   1.14620   1.14748   1.15400
 Alpha virt. eigenvalues --    1.16166   1.16901   1.17437   1.17985   1.18906
 Alpha virt. eigenvalues --    1.19207   1.21316   1.21370   1.21878   1.22343
 Alpha virt. eigenvalues --    1.23019   1.24039   1.24751   1.25710   1.25816
 Alpha virt. eigenvalues --    1.26256   1.27609   1.28049   1.29463   1.30141
 Alpha virt. eigenvalues --    1.31096   1.31788   1.32030   1.33392   1.34473
 Alpha virt. eigenvalues --    1.34676   1.35379   1.36717   1.38036   1.38464
 Alpha virt. eigenvalues --    1.39616   1.40699   1.41056   1.42713   1.43726
 Alpha virt. eigenvalues --    1.44158   1.45094   1.46297   1.47711   1.48362
 Alpha virt. eigenvalues --    1.49712   1.49931   1.51069   1.51818   1.52691
 Alpha virt. eigenvalues --    1.53211   1.53631   1.53733   1.54790   1.55833
 Alpha virt. eigenvalues --    1.56087   1.56648   1.57505   1.57675   1.58726
 Alpha virt. eigenvalues --    1.58781   1.59141   1.59954   1.60451   1.60919
 Alpha virt. eigenvalues --    1.61619   1.62013   1.62442   1.62803   1.63208
 Alpha virt. eigenvalues --    1.63249   1.64231   1.64866   1.65686   1.66252
 Alpha virt. eigenvalues --    1.66873   1.67322   1.67687   1.67861   1.68862
 Alpha virt. eigenvalues --    1.69141   1.69640   1.70279   1.70933   1.71090
 Alpha virt. eigenvalues --    1.72389   1.72493   1.72993   1.73747   1.73844
 Alpha virt. eigenvalues --    1.74690   1.75192   1.75718   1.76153   1.77289
 Alpha virt. eigenvalues --    1.78555   1.79100   1.79793   1.80442   1.80889
 Alpha virt. eigenvalues --    1.82316   1.82397   1.83206   1.84112   1.84725
 Alpha virt. eigenvalues --    1.85714   1.86192   1.87111   1.87672   1.88580
 Alpha virt. eigenvalues --    1.89498   1.90162   1.90437   1.90792   1.91093
 Alpha virt. eigenvalues --    1.91929   1.92255   1.92793   1.93292   1.93502
 Alpha virt. eigenvalues --    1.94135   1.95122   1.95427   1.95847   1.96910
 Alpha virt. eigenvalues --    1.97728   1.98193   1.98772   1.99680   2.00526
 Alpha virt. eigenvalues --    2.01563   2.02593   2.02942   2.03800   2.04767
 Alpha virt. eigenvalues --    2.05187   2.05680   2.06665   2.07365   2.07864
 Alpha virt. eigenvalues --    2.08299   2.09180   2.09942   2.10399   2.10887
 Alpha virt. eigenvalues --    2.11848   2.12182   2.13684   2.13905   2.14999
 Alpha virt. eigenvalues --    2.15350   2.16050   2.17265   2.17763   2.18456
 Alpha virt. eigenvalues --    2.19169   2.19442   2.20122   2.21080   2.21929
 Alpha virt. eigenvalues --    2.22078   2.22549   2.23234   2.24667   2.25020
 Alpha virt. eigenvalues --    2.26587   2.27351   2.27605   2.28281   2.28541
 Alpha virt. eigenvalues --    2.29052   2.29969   2.30415   2.30858   2.31661
 Alpha virt. eigenvalues --    2.32205   2.32422   2.33073   2.33832   2.34484
 Alpha virt. eigenvalues --    2.34960   2.36006   2.37228   2.37632   2.38373
 Alpha virt. eigenvalues --    2.39306   2.40718   2.41672   2.43023   2.43244
 Alpha virt. eigenvalues --    2.43790   2.44631   2.44791   2.45856   2.46081
 Alpha virt. eigenvalues --    2.46372   2.46973   2.47355   2.47946   2.48911
 Alpha virt. eigenvalues --    2.49150   2.51152   2.51917   2.53307   2.53634
 Alpha virt. eigenvalues --    2.55036   2.55944   2.57085   2.57844   2.58539
 Alpha virt. eigenvalues --    2.58912   2.59542   2.60616   2.60895   2.61510
 Alpha virt. eigenvalues --    2.61923   2.62090   2.62530   2.63821   2.64217
 Alpha virt. eigenvalues --    2.65078   2.65865   2.66052   2.66663   2.67108
 Alpha virt. eigenvalues --    2.68437   2.69044   2.69359   2.69736   2.70593
 Alpha virt. eigenvalues --    2.70718   2.72112   2.72779   2.73157   2.73557
 Alpha virt. eigenvalues --    2.74152   2.75097   2.75616   2.76559   2.77126
 Alpha virt. eigenvalues --    2.78115   2.78544   2.78992   2.79428   2.79971
 Alpha virt. eigenvalues --    2.81007   2.82044   2.82686   2.83397   2.83556
 Alpha virt. eigenvalues --    2.84311   2.85164   2.85614   2.86506   2.87045
 Alpha virt. eigenvalues --    2.87904   2.88632   2.89514   2.90245   2.91524
 Alpha virt. eigenvalues --    2.92385   2.93474   2.94000   2.94596   2.94774
 Alpha virt. eigenvalues --    2.95232   2.97203   2.97386   2.98868   2.99081
 Alpha virt. eigenvalues --    3.00148   3.00476   3.00979   3.01240   3.02429
 Alpha virt. eigenvalues --    3.03138   3.03926   3.04565   3.05053   3.05516
 Alpha virt. eigenvalues --    3.06329   3.06639   3.07145   3.07779   3.08908
 Alpha virt. eigenvalues --    3.09731   3.10091   3.10924   3.11532   3.12396
 Alpha virt. eigenvalues --    3.13100   3.13177   3.13694   3.14293   3.14503
 Alpha virt. eigenvalues --    3.15537   3.16232   3.16613   3.17833   3.17999
 Alpha virt. eigenvalues --    3.18465   3.18759   3.19538   3.19817   3.20390
 Alpha virt. eigenvalues --    3.20997   3.21292   3.22577   3.23565   3.24162
 Alpha virt. eigenvalues --    3.24302   3.24409   3.26152   3.26435   3.26894
 Alpha virt. eigenvalues --    3.27516   3.28018   3.28551   3.29919   3.30072
 Alpha virt. eigenvalues --    3.30990   3.31299   3.31704   3.32523   3.33235
 Alpha virt. eigenvalues --    3.33700   3.34706   3.35206   3.35449   3.36046
 Alpha virt. eigenvalues --    3.36616   3.37289   3.37661   3.37901   3.38596
 Alpha virt. eigenvalues --    3.39260   3.39924   3.40125   3.40696   3.41465
 Alpha virt. eigenvalues --    3.41717   3.42889   3.43346   3.44372   3.44760
 Alpha virt. eigenvalues --    3.45613   3.46341   3.46816   3.47305   3.47680
 Alpha virt. eigenvalues --    3.48867   3.48988   3.49615   3.50621   3.51606
 Alpha virt. eigenvalues --    3.52732   3.52833   3.53294   3.53972   3.54902
 Alpha virt. eigenvalues --    3.55466   3.55893   3.56755   3.57603   3.58885
 Alpha virt. eigenvalues --    3.59428   3.61163   3.62921   3.63249   3.64772
 Alpha virt. eigenvalues --    3.65712   3.65895   3.66507   3.69029   3.69412
 Alpha virt. eigenvalues --    3.70298   3.70915   3.71790   3.73031   3.74047
 Alpha virt. eigenvalues --    3.74641   3.75214   3.76684   3.77192   3.79002
 Alpha virt. eigenvalues --    3.79703   3.80298   3.81180   3.81834   3.82845
 Alpha virt. eigenvalues --    3.84591   3.85030   3.86226   3.87156   3.88081
 Alpha virt. eigenvalues --    3.88582   3.90074   3.91417   3.92296   3.92981
 Alpha virt. eigenvalues --    3.94157   3.94809   3.95932   3.96792   3.98857
 Alpha virt. eigenvalues --    4.00005   4.00982   4.01493   4.04703   4.05647
 Alpha virt. eigenvalues --    4.06327   4.06997   4.07784   4.09934   4.10570
 Alpha virt. eigenvalues --    4.11672   4.12147   4.13619   4.14180   4.17498
 Alpha virt. eigenvalues --    4.18283   4.18984   4.19592   4.23197   4.25741
 Alpha virt. eigenvalues --    4.26277   4.26646   4.28106   4.29698   4.30747
 Alpha virt. eigenvalues --    4.31347   4.33515   4.33905   4.34761   4.35211
 Alpha virt. eigenvalues --    4.36743   4.38545   4.38944   4.39621   4.40763
 Alpha virt. eigenvalues --    4.43119   4.43751   4.45508   4.46234   4.46949
 Alpha virt. eigenvalues --    4.48115   4.50340   4.53316   4.54531   4.57058
 Alpha virt. eigenvalues --    4.58892   4.60007   4.61049   4.63725   4.68606
 Alpha virt. eigenvalues --    4.69380   4.71770   4.73357   4.74679   4.75135
 Alpha virt. eigenvalues --    4.76694   4.77930   4.79154   4.79803   4.81253
 Alpha virt. eigenvalues --    4.82509   4.86298   4.87598   4.87669   4.91075
 Alpha virt. eigenvalues --    4.91448   4.93933   4.94558   4.95793   4.96626
 Alpha virt. eigenvalues --    4.98176   4.98735   5.00420   5.01619   5.03971
 Alpha virt. eigenvalues --    5.05016   5.08363   5.10698   5.15098   5.17447
 Alpha virt. eigenvalues --    5.18287   5.21772   5.24215   5.28517   5.28861
 Alpha virt. eigenvalues --    5.29388   5.29884   5.30343   5.31623   5.36228
 Alpha virt. eigenvalues --    5.37603   5.40443   5.42687   5.44763   5.46043
 Alpha virt. eigenvalues --    5.47883   5.49907   5.52939   5.53698   5.60290
 Alpha virt. eigenvalues --    5.61985   5.63035   5.70296   5.73423   5.75405
 Alpha virt. eigenvalues --    5.76613   5.79069   5.80634   5.82586   5.83797
 Alpha virt. eigenvalues --    5.84445   5.86341   5.87947   5.90204   5.94355
 Alpha virt. eigenvalues --    5.97524   6.00619   6.06025   6.16203   6.17601
 Alpha virt. eigenvalues --    6.21225   6.23240   6.27563   6.31339   6.36796
 Alpha virt. eigenvalues --    6.39564   6.40242   6.50567   6.52047   6.54947
 Alpha virt. eigenvalues --    6.56748   6.63909   6.68970   6.72178   6.72556
 Alpha virt. eigenvalues --    6.75506   6.78306   6.82325   6.84331   6.85909
 Alpha virt. eigenvalues --    6.89052   6.92727   6.98812   7.06180   7.07049
 Alpha virt. eigenvalues --    7.07589   7.10362   7.12529   7.16628   7.22771
 Alpha virt. eigenvalues --    7.27468   7.31828   9.05967   9.44561   9.58522
 Alpha virt. eigenvalues --   19.90190  22.35406  22.44158  22.54331  22.57224
 Alpha virt. eigenvalues --   22.61417  22.68037  22.68832  22.75144  22.78454
 Alpha virt. eigenvalues --   22.82820  22.91714  22.93192  23.04977  23.18996
 Alpha virt. eigenvalues --   23.21554  23.37785  32.08945  33.13032  44.10505
 Alpha virt. eigenvalues --   44.21833  44.23146  44.29068  44.48254
          Condensed to atoms (all electrons):
               1          2          3          4          5          6
     1  C    5.101432   0.424430   0.418822  -0.007857   0.000714  -0.000363
     2  H    0.424430   0.510504  -0.022160  -0.001092   0.000227  -0.000002
     3  H    0.418822  -0.022160   0.530817   0.001629  -0.000029  -0.000006
     4  C   -0.007857  -0.001092   0.001629   5.403857   0.493506   0.303230
     5  H    0.000714   0.000227  -0.000029   0.493506   0.563305  -0.033343
     6  O   -0.000363  -0.000002  -0.000006   0.303230  -0.033343   8.052651
     7  H   -0.000055  -0.000004   0.000004  -0.034894  -0.012571   0.269826
     8  C    0.014467   0.012843  -0.009368  -0.053975  -0.069639  -0.058700
     9  H    0.011665   0.000127  -0.002366  -0.100076   0.001558   0.004380
    10  O    0.006750  -0.000370   0.000291  -0.042370   0.001404  -0.010280
    11  H   -0.001495  -0.000119   0.000475   0.015723  -0.000743  -0.000491
    12  C   -0.004319  -0.000069   0.000565  -0.019075  -0.103133  -0.040146
    13  H    0.000176   0.000014   0.000095  -0.081464   0.006957   0.009725
    14  C    0.166153  -0.050535  -0.041735   0.131042   0.014319   0.006616
    15  H   -0.068339  -0.007293  -0.003494  -0.007210   0.000018   0.000110
    16  O   -0.027925   0.000810   0.004992  -0.055976   0.002433   0.005120
    17  N    0.000064  -0.000051  -0.000036   0.012027  -0.011445  -0.003423
    18  C   -0.001148  -0.000000   0.000029  -0.011173  -0.002811   0.003100
    19  H    0.000002  -0.000030   0.000023  -0.005868   0.000912   0.000541
    20  C    0.000061  -0.000004  -0.000002   0.006233   0.007666  -0.001068
    21  H    0.000004   0.000000  -0.000000  -0.000011   0.000146  -0.000015
    22  C   -0.000014   0.000001   0.000000   0.001197  -0.000896   0.000125
    23  H   -0.000000   0.000000  -0.000000   0.000016  -0.000005   0.000001
    24  H    0.000000  -0.000000   0.000000  -0.000054  -0.000062  -0.000036
    25  C   -0.000057  -0.000005   0.000001  -0.008901   0.000304  -0.000411
    26  C   -0.000352   0.000049  -0.000006   0.012651  -0.002344  -0.004511
    27  H   -0.000020   0.000001  -0.000000   0.000550  -0.000143  -0.000049
    28  C    0.000000  -0.000000  -0.000000  -0.000029   0.000014  -0.000008
    29  O   -0.000000   0.000000  -0.000000   0.000009  -0.000000  -0.000000
    30  N   -0.000000  -0.000000   0.000000  -0.000000   0.000000  -0.000000
    31  H   -0.000000   0.000000   0.000000  -0.000000   0.000000  -0.000000
    32  H    0.000000   0.000000  -0.000000   0.000000   0.000000   0.000000
    33  C    0.000001  -0.000000   0.000000   0.000128  -0.000379  -0.014717
    34  C    0.000000  -0.000000   0.000000   0.001255   0.000369   0.009390
    35  C    0.000000   0.000000  -0.000000  -0.000355   0.000212   0.001176
    36  C   -0.000000   0.000000   0.000000   0.000004   0.000000   0.000001
    37  C   -0.000000   0.000000   0.000000   0.000072   0.000019   0.000046
    38  O   -0.000000   0.000000   0.000000   0.005326  -0.000086  -0.045006
    39  S   -0.000000  -0.000000  -0.000000  -0.000134   0.000026   0.000968
    40  H   -0.000000   0.000000  -0.000000   0.000117   0.000038   0.000151
    41  H   -0.000003   0.000000  -0.000000  -0.000204   0.000360   0.008335
    42  H    0.000000  -0.000000   0.000000   0.000000  -0.000000  -0.000000
    43  H    0.000000  -0.000000  -0.000000   0.000000  -0.000000   0.000000
    44  H    0.000000  -0.000000  -0.000000   0.000000  -0.000000   0.000000
    45  H   -0.000000   0.000000   0.000000  -0.000009   0.000004   0.000023
    46  H    0.000000  -0.000000  -0.000000  -0.000008  -0.000000   0.000015
    47  H    0.378191  -0.023634  -0.024616   0.000888  -0.000205   0.000026
    48  H    0.000000   0.000000  -0.000000  -0.000049   0.000002   0.000198
               7          8          9         10         11         12
     1  C   -0.000055   0.014467   0.011665   0.006750  -0.001495  -0.004319
     2  H   -0.000004   0.012843   0.000127  -0.000370  -0.000119  -0.000069
     3  H    0.000004  -0.009368  -0.002366   0.000291   0.000475   0.000565
     4  C   -0.034894  -0.053975  -0.100076  -0.042370   0.015723  -0.019075
     5  H   -0.012571  -0.069639   0.001558   0.001404  -0.000743  -0.103133
     6  O    0.269826  -0.058700   0.004380  -0.010280  -0.000491  -0.040146
     7  H    0.348794   0.010237  -0.000372  -0.000782   0.000190   0.008882
     8  C    0.010237   5.486762   0.518266   0.305760  -0.045623   0.004505
     9  H   -0.000372   0.518266   0.571074  -0.052900  -0.007536   0.012854
    10  O   -0.000782   0.305760  -0.052900   7.978565   0.294080  -0.021186
    11  H    0.000190  -0.045623  -0.007536   0.294080   0.430143  -0.001882
    12  C    0.008882   0.004505   0.012854  -0.021186  -0.001882   5.561551
    13  H   -0.000900   0.012629   0.002445   0.015077  -0.001075   0.427923
    14  C   -0.000619   0.003332  -0.129088  -0.063813   0.002932  -0.095467
    15  H    0.000067  -0.041898   0.010075   0.000322   0.003060   0.000358
    16  O    0.000154  -0.030296   0.005246   0.008287  -0.000017   0.245605
    17  N    0.004787   0.000961  -0.000590  -0.000080   0.000010   0.217625
    18  C   -0.001289  -0.002769  -0.000141  -0.000186   0.000010  -0.083457
    19  H    0.000058   0.000781  -0.000044   0.000004   0.000001   0.008900
    20  C   -0.001634  -0.001615   0.000059   0.000012  -0.000002   0.012340
    21  H   -0.000015  -0.000012   0.000001   0.000000  -0.000000   0.000302
    22  C    0.000612   0.000061  -0.000009  -0.000004   0.000000  -0.013460
    23  H   -0.000002   0.000001  -0.000000  -0.000000   0.000000  -0.000012
    24  H    0.000316   0.000016  -0.000000  -0.000000   0.000000   0.000744
    25  C    0.000535  -0.000345   0.000007  -0.000013  -0.000001  -0.004451
    26  C   -0.001856  -0.003820  -0.000119  -0.000450  -0.000038  -0.072574
    27  H    0.000094  -0.000147  -0.000011  -0.000139   0.000005  -0.002174
    28  C    0.000006   0.000005   0.000000   0.000000  -0.000000   0.000731
    29  O    0.000004   0.000000   0.000000  -0.000000  -0.000000   0.000538
    30  N    0.000000  -0.000000  -0.000000  -0.000000  -0.000000   0.000031
    31  H   -0.000000  -0.000000   0.000000  -0.000000  -0.000000  -0.000004
    32  H   -0.000000  -0.000000   0.000000  -0.000000  -0.000000  -0.000010
    33  C    0.002528   0.000584   0.000018  -0.000607   0.000039   0.000071
    34  C   -0.013926   0.000046  -0.000015   0.000020   0.000000  -0.002117
    35  C    0.002100  -0.000170  -0.000000   0.000001  -0.000000  -0.000451
    36  C   -0.000015  -0.000000  -0.000000  -0.000000  -0.000000  -0.000022
    37  C   -0.000676   0.000005  -0.000000   0.000000  -0.000000  -0.000535
    38  O    0.066446  -0.000051  -0.000004  -0.000002  -0.000000   0.001761
    39  S   -0.001175  -0.000079  -0.000002  -0.000005  -0.000001   0.000209
    40  H    0.000163  -0.000054  -0.000000   0.000011  -0.000001   0.000018
    41  H   -0.011809  -0.000741   0.000013   0.001919  -0.000128  -0.000260
    42  H    0.000001   0.000000  -0.000000   0.000000   0.000000   0.000003
    43  H   -0.000000   0.000000   0.000000   0.000000   0.000000   0.000001
    44  H    0.000000  -0.000000  -0.000000   0.000000   0.000000   0.000000
    45  H   -0.000195  -0.000000   0.000000  -0.000000  -0.000000  -0.000042
    46  H   -0.000074  -0.000001  -0.000000  -0.000000   0.000000   0.000114
    47  H    0.000025  -0.014170   0.000410   0.000234   0.000157  -0.001025
    48  H    0.000365  -0.000022   0.000002   0.000004  -0.000002   0.000011
              13         14         15         16         17         18
     1  C    0.000176   0.166153  -0.068339  -0.027925   0.000064  -0.001148
     2  H    0.000014  -0.050535  -0.007293   0.000810  -0.000051  -0.000000
     3  H    0.000095  -0.041735  -0.003494   0.004992  -0.000036   0.000029
     4  C   -0.081464   0.131042  -0.007210  -0.055976   0.012027  -0.011173
     5  H    0.006957   0.014319   0.000018   0.002433  -0.011445  -0.002811
     6  O    0.009725   0.006616   0.000110   0.005120  -0.003423   0.003100
     7  H   -0.000900  -0.000619   0.000067   0.000154   0.004787  -0.001289
     8  C    0.012629   0.003332  -0.041898  -0.030296   0.000961  -0.002769
     9  H    0.002445  -0.129088   0.010075   0.005246  -0.000590  -0.000141
    10  O    0.015077  -0.063813   0.000322   0.008287  -0.000080  -0.000186
    11  H   -0.001075   0.002932   0.003060  -0.000017   0.000010   0.000010
    12  C    0.427923  -0.095467   0.000358   0.245605   0.217625  -0.083457
    13  H    0.497625  -0.010004   0.005532  -0.028972  -0.046766   0.012398
    14  C   -0.010004   5.438853   0.417966   0.183540   0.010901  -0.000198
    15  H    0.005532   0.417966   0.597988  -0.036749  -0.000948   0.000373
    16  O   -0.028972   0.183540  -0.036749   8.071327  -0.073146   0.018927
    17  N   -0.046766   0.010901  -0.000948  -0.073146   6.296410   0.340934
    18  C    0.012398  -0.000198   0.000373   0.018927   0.340934   5.086947
    19  H    0.000997  -0.001825   0.000069   0.004932  -0.041052   0.414315
    20  C    0.001338   0.000297   0.000029  -0.001418  -0.031640   0.352060
    21  H    0.000014  -0.000005  -0.000000  -0.000063   0.003558  -0.031223
    22  C   -0.000999   0.000061  -0.000008   0.001314  -0.045556   0.067227
    23  H   -0.000016   0.000001  -0.000000   0.000003  -0.000977   0.003771
    24  H    0.000039   0.000001  -0.000000   0.000008   0.006179   0.012103
    25  C    0.010844  -0.000040   0.000044  -0.003795  -0.006566  -0.012799
    26  C   -0.021748   0.000675  -0.000480   0.004707   0.347003  -0.172646
    27  H   -0.001596   0.000111  -0.000026   0.000839  -0.030179   0.008151
[...]
      6        8           0.001856348   -0.007943787   -0.013822652
      7        1          -0.008999600    0.005684909    0.003852686
      8        6          -0.011768776   -0.004422849   -0.006856885
      9        1           0.000440851    0.005577653   -0.002735713
     10        8           0.006400150   -0.001817497   -0.001824491
     11        1          -0.001291657    0.001590922    0.000579850
     12        6           0.014122274   -0.007093715    0.009494007
     13        1          -0.005013373    0.000130441   -0.003482212
     14        6           0.002898785    0.000580184    0.008599499
     15        1          -0.003237780    0.002384645    0.001162286
     16        8          -0.007549109    0.004163629    0.005831351
     17        7           0.006209610   -0.004791263    0.002138685
     18        6          -0.002852705   -0.000464630   -0.000687790
     19        1           0.005221964    0.000628060    0.001803034
     20        6           0.000000722   -0.012129093    0.004735090
     21        1          -0.000032525   -0.003051888   -0.000143983
     22        6           0.003295990    0.016219843   -0.004037826
     23        1          -0.002791071    0.001484558   -0.001517305
     24        1          -0.000374201   -0.004106536   -0.001197815
     25        6          -0.014519715    0.001789026   -0.004317475
     26        6           0.000299171    0.008034712    0.003424700
     27        1           0.002877634   -0.001125385    0.003041504
     28        6          -0.015984666   -0.001205197   -0.001876395
     29        8           0.000990556   -0.002305922   -0.004617137
     30        7           0.025834592   -0.002975604   -0.003574436
     31        1          -0.003144357   -0.005460480    0.007939109
     32        1          -0.002742885    0.006344819    0.006736925
     33        6          -0.002354418   -0.011693086   -0.001122763
     34        6           0.007367872   -0.026614703    0.014437955
     35        6          -0.012201477    0.005862840   -0.020456473
     36        6          -0.004234565    0.003588913   -0.001249352
     37        6           0.006729484   -0.005945093    0.011038689
     38        8           0.002307536    0.007199599   -0.008518277
     39       16           0.014977675    0.014316512    0.006214113
     40        1           0.001781353    0.000305653    0.001188406
     41        1           0.001229030    0.001373593    0.004260995
     42        1          -0.003857524    0.000834715   -0.003252742
     43        1          -0.000522479    0.001613352   -0.001690461
     44        1          -0.000170290    0.003173183   -0.001636066
     45        1           0.002430567   -0.002467779   -0.003652544
     46        1          -0.001731586    0.001516367    0.000756170
     47        1           0.000640600   -0.001850907   -0.000411662
     48        1          -0.002534005    0.004158175   -0.004570836
 -------------------------------------------------------------------
 Cartesian Forces:  Max     0.026614703 RMS     0.006671208
 Leave Link  716 at Sun Apr  9 11:14:39 2023, MaxMem=  2684354560 cpu:               0.8 elap:               0.1
 (Enter /opt/gaussian/g16/l103.exe)

 GradGradGradGradGradGradGradGradGradGradGradGradGradGradGradGradGradGrad
 Berny optimization.
 Search for a local minimum.
 Step number   1 out of a maximum of    2
 All quantities printed in internal units (Hartrees-Bohrs-Radians)
 Second derivative matrix not updated -- first step.
 ITU=  0
     Eigenvalues ---    0.00042   0.00100   0.00116   0.00139   0.00169
     Eigenvalues ---    0.00278   0.00329   0.00391   0.00483   0.00540
     Eigenvalues ---    0.00642   0.00709   0.00819   0.00965   0.01003
     Eigenvalues ---    0.01086   0.01205   0.01351   0.01410   0.01577
     Eigenvalues ---    0.01740   0.02011   0.02382   0.02418   0.02619
     Eigenvalues ---    0.03017   0.03203   0.03698   0.04003   0.04205
     Eigenvalues ---    0.04450   0.04632   0.04842   0.05015   0.05153
     Eigenvalues ---    0.05290   0.05442   0.05512   0.05777   0.06039
     Eigenvalues ---    0.06124   0.06328   0.06674   0.07024   0.07115
     Eigenvalues ---    0.07170   0.07606   0.07739   0.08241   0.08434
     Eigenvalues ---    0.08661   0.08849   0.09384   0.09524   0.09871
     Eigenvalues ---    0.10985   0.11324   0.11567   0.12009   0.12113
     Eigenvalues ---    0.13022   0.13142   0.13642   0.13703   0.14002
     Eigenvalues ---    0.14156   0.14394   0.15375   0.15738   0.16501
     Eigenvalues ---    0.16720   0.17851   0.18427   0.18675   0.19407
     Eigenvalues ---    0.20728   0.21134   0.21813   0.22436   0.26502
     Eigenvalues ---    0.26728   0.27758   0.28710   0.29270   0.33177
     Eigenvalues ---    0.33441   0.34347   0.34878   0.36842   0.37618
     Eigenvalues ---    0.37618   0.37618   0.37618   0.37618   0.41631
     Eigenvalues ---    0.44239   0.48404   0.48600   0.54416   0.59747
     Eigenvalues ---    0.60661   0.60930   0.67183   0.72833   0.73611
     Eigenvalues ---    0.79607   0.83620   0.83939   0.87750   0.89552
     Eigenvalues ---    0.90370   0.91779   0.92919   0.93522   0.95215
     Eigenvalues ---    0.97591   0.98699   0.99137   1.01593   1.02861
     Eigenvalues ---    1.05692   1.07268   1.09061   1.09326   1.12137
     Eigenvalues ---    1.12528   1.17946   1.22737   1.28491   1.31694
     Eigenvalues ---    1.32767   1.35043   1.37582   1.58261   1.74481
     Eigenvalues ---    1.78510   1.90065   2.36993
 Quadratic step=5.322D+00 exceeds max=3.000D-01 adjusted using Lamda=-3.951D-02.
 Angle between NR and scaled steps=  64.93 degrees.
 Angle between quadratic step and forces=  56.21 degrees.
 Linear search not attempted -- first point.
 Variable       Old X    -DE/DX   Delta X   Delta X   Delta X     New X
                                 (Linear)    (Quad)   (Total)
    X1        6.54401  -0.00629   0.00000  -0.02230  -0.02230   6.52171
    Y1       -6.88943   0.01423   0.00000   0.03013   0.03013  -6.85930
    Z1       -1.29175  -0.00113   0.00000  -0.00566  -0.00566  -1.29741
    X2        6.70804  -0.00029   0.00000  -0.01708  -0.01708   6.69097
    Y2       -7.19521  -0.00372   0.00000  -0.01403  -0.01403  -7.20923
    Z2       -3.31560  -0.00123   0.00000  -0.00414  -0.00414  -3.31973
    X3        8.24531   0.00069   0.00000  -0.02719  -0.02719   8.21812
    Y3       -7.56103  -0.00410   0.00000  -0.01784  -0.01784  -7.57888
    Z3       -0.36004   0.00092   0.00000  -0.00965  -0.00965  -0.36969
    X4        3.04895   0.00106   0.00000  -0.00457  -0.00457   3.04439
    Y4       -2.33998  -0.00243   0.00000  -0.00033  -0.00033  -2.34031
    Z4        1.89277   0.00189   0.00000  -0.01043  -0.01043   1.88233
    X5        1.75475   0.00482   0.00000   0.02200   0.02200   1.77675
    Y5       -3.98980   0.00493   0.00000   0.00405   0.00405  -3.98575
    Z5        1.84387  -0.00042   0.00000  -0.02248  -0.02248   1.82139
    X6        2.55840   0.00186   0.00000  -0.04407  -0.04407   2.51434
    Y6       -0.75180  -0.00794   0.00000   0.00218   0.00218  -0.74962
    Z6        3.91341  -0.01382   0.00000  -0.04433  -0.04433   3.86908
    X7        0.81351  -0.00900   0.00000  -0.05186  -0.05186   0.76164
    Y7       -0.12042   0.00568   0.00000   0.02941   0.02941  -0.09101
    Z7        3.82222   0.00385   0.00000   0.00580   0.00580   3.82802
    X8        5.80380  -0.01177   0.00000  -0.02053  -0.02053   5.78328
    Y8       -3.33102  -0.00442   0.00000   0.01060   0.01060  -3.32042
    Z8        1.99721  -0.00686   0.00000  -0.01373  -0.01373   1.98348
    X9        5.94523   0.00044   0.00000  -0.00103  -0.00103   5.94419
    Y9       -4.99745   0.00558   0.00000   0.02778   0.02778  -4.96967
    Z9        3.24189  -0.00274   0.00000  -0.01655  -0.01655   3.22534
   X10        7.28867   0.00640   0.00000   0.01762   0.01762   7.30629
   Y10       -1.31598  -0.00182   0.00000  -0.00294  -0.00294  -1.31891
   Z10        2.85625  -0.00182   0.00000  -0.02993  -0.02993   2.82632
   X11        9.01935  -0.00129   0.00000   0.01220   0.01220   9.03155
   Y11       -1.87225   0.00159   0.00000  -0.00850  -0.00850  -1.88075
   Z11        2.95460   0.00058   0.00000  -0.01567  -0.01567   2.93893
   X12        3.09999   0.01412   0.00000   0.01444   0.01444   3.11443
   Y12       -1.11442  -0.00709   0.00000   0.00099   0.00099  -1.11342
   Z12       -0.77730   0.00949   0.00000   0.02201   0.02201  -0.75529
   X13        4.20938  -0.00501   0.00000  -0.01339  -0.01339   4.19599
   Y13        0.63094   0.00013   0.00000   0.01276   0.01276   0.64370
   Z13       -0.60731  -0.00348   0.00000  -0.02259  -0.02259  -0.62991
   X14        6.34710   0.00290   0.00000  -0.01315  -0.01315   6.33394
   Y14       -4.05774   0.00058   0.00000   0.01774   0.01774  -4.04000
   Z14       -0.81359   0.00860   0.00000   0.01392   0.01392  -0.79967
   X15        8.14451  -0.00324   0.00000  -0.02912  -0.02912   8.11539
   Y15       -3.18902   0.00238   0.00000   0.03791   0.03791  -3.15112
   Z15       -1.38287   0.00116   0.00000   0.00895   0.00895  -1.37392
   X16        4.35619  -0.00755   0.00000  -0.02946  -0.02946   4.32673
   Y16       -2.94180   0.00416   0.00000   0.00074   0.00074  -2.94107
   Z16       -2.29870   0.00583   0.00000   0.02688   0.02688  -2.27183
   X17        0.66631   0.00621   0.00000   0.00944   0.00944   0.67575
   Y17       -0.50435  -0.00479   0.00000   0.00174   0.00174  -0.50261
   Z17       -1.94003   0.00214   0.00000   0.02022   0.02022  -1.91981
   X18       -1.18226  -0.00285   0.00000   0.01321   0.01321  -1.16905
   Y18       -2.29036  -0.00046   0.00000  -0.00623  -0.00623  -2.29659
   Z18       -2.05213  -0.00069   0.00000   0.00770   0.00770  -2.04443
   X19       -0.83644   0.00522   0.00000   0.06559   0.06559  -0.77085
   Y19       -4.10364   0.00063   0.00000   0.00186   0.00186  -4.10178
   Z19       -1.19863   0.00180   0.00000   0.00841   0.00841  -1.19022
   X20       -3.41975   0.00000   0.00000   0.00283   0.00283  -3.41692
   Y20       -1.77413  -0.01213   0.00000  -0.02399  -0.02399  -1.79812
   Z20       -3.20536   0.00474   0.00000   0.00718   0.00718  -3.19818
   X21       -4.90284  -0.00003   0.00000   0.02058   0.02058  -4.88226
   Y21       -3.16809  -0.00305   0.00000  -0.04772  -0.04772  -3.21581
   Z21       -3.18230  -0.00014   0.00000  -0.00785  -0.00785  -3.19016
   X22       -3.82626   0.00330   0.00000  -0.01655  -0.01655  -3.84281
   Y22        0.55573   0.01622   0.00000   0.00846   0.00846   0.56419
   Z22       -4.30693  -0.00404   0.00000   0.01246   0.01246  -4.29447
   X23       -5.60819  -0.00279   0.00000  -0.01379  -0.01379  -5.62199
   Y23        0.97470   0.00148   0.00000   0.00833   0.00833   0.98303
   Z23       -5.19338  -0.00152   0.00000  -0.00775  -0.00775  -5.20113
   X24       -5.42126  -0.00037   0.00000  -0.00532  -0.00532  -5.42657
   Y24        2.38643  -0.00411   0.00000  -0.02737  -0.02737   2.35907
   Z24       -0.93249  -0.00120   0.00000  -0.00691  -0.00691  -0.93940
   X25       -1.87877  -0.01452   0.00000  -0.03709  -0.03709  -1.91587
   Y25        2.34784   0.00179   0.00000   0.01279   0.01279   2.36063
   Z25       -4.26553  -0.00432   0.00000   0.03603   0.03603  -4.22950
   X26        0.31621   0.00030   0.00000  -0.01934  -0.01934   0.29687
   Y26        1.77167   0.00803   0.00000   0.02090   0.02090   1.79257
   Z26       -3.02142   0.00342   0.00000   0.04372   0.04372  -2.97770
   X27        1.80592   0.00288   0.00000   0.00623   0.00623   1.81214
   Y27        3.16169  -0.00113   0.00000  -0.00076  -0.00076   3.16093
   Z27       -2.91102   0.00304   0.00000   0.04815   0.04815  -2.86287
   X28       -2.21203  -0.01598   0.00000  -0.02091  -0.02091  -2.23294
   Y28        4.95869  -0.00121   0.00000  -0.00852  -0.00852   4.95017
   Z28       -5.39391  -0.00188   0.00000   0.02514   0.02514  -5.36877
   X29       -0.96641   0.00099   0.00000   0.02313   0.02313  -0.94328
   Y29        6.73139  -0.00231   0.00000  -0.01812  -0.01812   6.71328
   Z29       -4.71639  -0.00462   0.00000  -0.03960  -0.03960  -4.75599
   X30       -4.24059   0.02583   0.00000   0.07261   0.07261  -4.16798
   Y30        5.15504  -0.00298   0.00000  -0.01948  -0.01948   5.13556
   Z30       -7.12554  -0.00357   0.00000  -0.01785  -0.01785  -7.14339
   X31       -4.09122  -0.00314   0.00000   0.01825   0.01825  -4.07297
   Y31        6.77831  -0.00546   0.00000  -0.00945  -0.00945   6.76886
   Z31       -8.16651   0.00794   0.00000   0.02488   0.02488  -8.14163
   X32       -4.39489  -0.00274   0.00000   0.00622   0.00622  -4.38866
   Y32        3.61848   0.00634   0.00000  -0.01060  -0.01060   3.60787
   Z32       -8.28671   0.00674   0.00000   0.01147   0.01147  -8.27524
   X33        1.26604  -0.00235   0.00000  -0.01340  -0.01340   1.25264
   Y33        4.01266  -0.01169   0.00000  -0.02556  -0.02556   3.98710
   Z33        7.26993  -0.00112   0.00000   0.02035   0.02035   7.29028
   X34       -2.05173   0.00737   0.00000   0.03750   0.03750  -2.01424
   Y34        3.79188  -0.02661   0.00000  -0.01550  -0.01550   3.77639
   Z34        3.22113   0.01444   0.00000  -0.01346  -0.01346   3.20767
   X35       -3.50113  -0.01220   0.00000  -0.00274  -0.00274  -3.50387
   Y35        5.00228   0.00586   0.00000  -0.00572  -0.00572   4.99656
   Z35        1.48306  -0.02046   0.00000  -0.02889  -0.02889   1.45416
   X36       -7.41715  -0.00423   0.00000  -0.02422  -0.02422  -7.44137
   Y36        5.90144   0.00359   0.00000   0.00672   0.00672   5.90816
   Z36       -1.02263  -0.00125   0.00000  -0.00243  -0.00243  -1.02506
   X37       -5.85537   0.00673   0.00000   0.00030   0.00030  -5.85506
   Y37        3.94900  -0.00595   0.00000  -0.02235  -0.02235   3.92665
   Z37        0.36873   0.01104   0.00000  -0.00045  -0.00045   0.36828
   X38       -2.13699   0.00231   0.00000   0.06087   0.06087  -2.07612
   Y38        1.49247   0.00720   0.00000  -0.02227  -0.02227   1.47020
   Z38        3.92449  -0.00852   0.00000  -0.07574  -0.07574   3.84875
   X39        0.15231   0.01498   0.00000   0.03846   0.03846   0.19077
   Y39        5.87919   0.01432   0.00000   0.02645   0.02645   5.90565
   Z39        4.66554   0.00621   0.00000   0.03400   0.03400   4.69954
   X40       -0.36950   0.00178   0.00000  -0.00609  -0.00609  -0.37559
   Y40        3.28253   0.00031   0.00000  -0.01359  -0.01359   3.26894
   Z40        8.28671   0.00119   0.00000   0.03169   0.03169   8.31840
   X41        2.35145   0.00123   0.00000   0.02633   0.02633   2.37778
   Y41        2.42686   0.00137   0.00000  -0.00974  -0.00974   2.41713
   Z41        6.53825   0.00426   0.00000   0.06383   0.06383   6.60208
   X42       -8.13330  -0.00386   0.00000  -0.05749  -0.05749  -8.19078
   Y42        5.13460   0.00083   0.00000   0.02801   0.02801   5.16261
   Z42       -2.78569  -0.00325   0.00000  -0.00688  -0.00688  -2.79256
   X43       -6.28632  -0.00052   0.00000  -0.01670  -0.01670  -6.30302
   Y43        7.56103   0.00161   0.00000   0.00399   0.00399   7.56503
   Z43       -1.46880  -0.00169   0.00000  -0.01803  -0.01803  -1.48683
   X44       -9.01935  -0.00017   0.00000  -0.00670  -0.00670  -9.02605
   Y44        6.49014   0.00317   0.00000   0.04815   0.04815   6.53829
   Z44        0.12841  -0.00164   0.00000  -0.00078  -0.00078   0.12763
   X45       -6.98424   0.00243   0.00000   0.02112   0.02112  -6.96312
   Y45        3.07653  -0.00247   0.00000  -0.04414  -0.04414   3.03239
   Z45        1.87939  -0.00365   0.00000  -0.00934  -0.00934   1.87006
   X46       -3.00531  -0.00173   0.00000  -0.04264  -0.04264  -3.04795
   Y46        6.93463   0.00152   0.00000   0.01631   0.01631   6.95094
   Z46        1.03136   0.00076   0.00000   0.00854   0.00854   1.03990
   X47        4.88626   0.00064   0.00000  -0.00855  -0.00855   4.87770
   Y47       -7.86853  -0.00185   0.00000   0.00319   0.00319  -7.86534
   Z47       -0.55962  -0.00041   0.00000  -0.01022  -0.01022  -0.56984
   X48        2.45130  -0.00253   0.00000  -0.04201  -0.04201   2.40929
   Y48        5.11603   0.00416   0.00000   0.03702   0.03702   5.15305
   Z48        8.54293  -0.00457   0.00000  -0.01280  -0.01280   8.53013
         Item               Value     Threshold  Converged?
 Maximum Force            0.026615     0.000450     NO 
 RMS     Force            0.006671     0.000300     NO 
 Maximum Displacement     0.075737     0.001800     NO 
 RMS     Displacement     0.025005     0.001200     NO 
 Predicted change in Energy=-8.457925D-03
 GradGradGradGradGradGradGradGradGradGradGradGradGradGradGradGradGradGrad

 Leave Link  103 at Sun Apr  9 11:14:39 2023, MaxMem=  2684354560 cpu:               1.6 elap:               0.1
 (Enter /opt/gaussian/g16/l9999.exe)

 Test job not archived.
 1\1\GINC-JULIO-SYS\Force\RM062X\def2TZVP\C16H24N2O5S1\JVELAZQUEZ\09-Ap
 r-2023\0\\#P M062X/Def2TZVP scf=(direct,conver=8) EmpiricalDispersion=
 GD3 NoSymm Force pop=(NBORead) Charge Prop=(Field,Read)\\Gaussian run 
 using SANDER external interface, route from template gau_job.tpl\\0,1\
 C,3.46293971,-3.6457314389,-0.6835644846\H,3.5497429801,-3.8075385232,
 -1.7545379251\H,4.3632279518,-4.0011264362,-0.1905234932\C,1.613435061
 3,-1.238265533,1.0016093603\H,0.9285733774,-2.1113108925,0.9757346057\
 O,1.3538489353,-0.397833163,2.0708887711\H,0.4304885265,-0.0637254236,
 2.0226308417\C,3.0712412358,-1.7627007723,1.0568783151\H,3.1460782525,
 -2.6445384128,1.7155348996\O,3.8569980736,-0.6963850403,1.5114627195\H
 ,4.7728337914,-0.9907516353,1.5635089501\C,1.6404429645,-0.5897246726,
 -0.4113314084\H,2.227505807,0.3338785188,-0.3213760091\C,3.3587383038,
 -2.1472611285,-0.4305338485\H,4.3098914669,-1.6875589489,-0.7317833215
 \O,2.3051978594,-1.5567357496,-1.2164220396\N,0.3525985576,-0.26688888
 77,-1.0266191775\C,-0.6256244753,-1.2120048894,-1.0859378649\H,-0.4426
 272687,-2.1715548744,-0.6342863726\C,-1.8096529015,-0.9388300253,-1.69
 62034741\H,-2.5944726453,-1.6764812369,-1.6840024473\C,-2.0247697329,0
 .294077888,-2.2791300689\H,-2.9677289211,0.5157866699,-2.7482158019\H,
 -2.8688050814,1.2628469,-0.4934538951\C,-0.9942047353,1.2424229661,-2.
 2572210779\C,0.1673316502,0.9375275136,-1.5988681645\H,0.9556496555,1.
 6730931014,-1.540444805\C,-1.1705560956,2.6240238635,-2.8543365436\O,-
 0.5114047826,3.5621000314,-2.4958045486\N,-2.2440234847,2.7279275013,-
 3.7706753004\H,-2.1649803047,3.5869291514,-4.3215318434\H,-2.325673371
 6,1.9148152758,-4.3851403603\C,0.6699618252,2.1234099222,3.8470826479\
 C,-1.0857310678,2.0065775515,1.7045478312\C,-1.852716248,2.6470924526,
 0.7847996855\C,-3.9249884153,3.1229087302,-0.5411524518\C,-3.098527004
 ,2.0897211212,0.1951217062\O,-1.1308477842,0.789783258,2.0767489848\S,
 0.0806015111,3.111135124,2.4688996606\H,-0.1955308781,1.7370394607,4.3
 851403603\H,1.2443350899,1.2842411202,3.4598947268\H,-4.3039555707,2.7
 171140881,-1.4741212453\H,-3.3265787523,4.0011264362,-0.7772563063\H,-
 4.7728337914,3.4344336511,0.0679500649\H,-3.6958995165,1.6280305771,0.
 9945328638\H,-1.5903407068,3.6696502474,0.5457741369\H,2.5856963477,-4
 .1638479612,-0.2961379076\H,1.2971708845,2.7072882329,4.5207256648\\Ve
 rsion=ES64L-G16RevA.03\HF=-1507.8503062\RMSD=5.898e-09\RMSF=6.671e-03\
 Dipole=0.8346725,-3.1519047,-3.4811396\Quadrupole=9.8930241,-11.012788
 4,1.1197643,-4.8271623,12.8107928,-9.6513183\PG=C01 [X(C16H24N2O5S1)]\
 \@


 WE TEND TO MEET ANY NEW SITUATION BY REORGANIZING. IT CAN BE A
 WONDERFUL METHOD FOR CREATING THE ILLUSION OF PROGRESS WHILE PRODUCING
 CONFUSION, INEFFICIENCY, AND DEMORALIZATION.
     -- PETRONIUS ARBITER, 210 B.C.
 Job cpu time:       0 days  7 hours 16 minutes 18.6 seconds.
 Elapsed time:       0 days  0 hours 27 minutes 16.5 seconds.
 File lengths (MBytes):  RWF=    435 Int=      0 D2E=      0 Chk=     48 Scr=      1
 Normal termination of Gaussian 16 at Sun Apr  9 11:14:39 2023.
